/*--------------------------------*- C++ -*----------------------------------*\
| =========                 |                                                 |
| \\      /  F ield         | OpenFOAM: The Open Source CFD Toolbox           |
|  \\    /   O peration     | Version:  2312                                  |
|   \\  /    A nd           | Website:  www.openfoam.com                      |
|    \\/     M anipulation  |                                                 |
\*---------------------------------------------------------------------------*/
FoamFile
{
    version     2.0;
    format      ascii;
    arch        "LSB;label=32;scalar=64";
    class       volScalarField;
    location    "0.65";
    object      p;
}
// * * * * * * * * * * * * * * * * * * * * * * * * * * * * * * * * * * * * * //

dimensions      [0 2 -2 0 0 0 0];

internalField   nonuniform List<scalar> 
5600
(
-1.23048e-08
0.000474
0.000305715
0.000441885
0.000366797
0.000531142
0.00050862
0.000649687
0.000676167
0.000807812
0.000863485
0.00100139
0.00108604
0.001209
0.00131893
0.0014577
0.00158321
0.00172231
0.00186317
0.00201695
0.00217929
0.00235042
0.00252792
0.00271823
0.00291566
0.00312571
0.00334102
0.00356839
0.0038022
0.00405072
0.0043106
0.00458953
0.00488227
0.00518619
0.00548892
0.00578085
0.0060689
0.00635138
0.00656539
0.00653599
2.63256e-06
0.000470889
0.000307596
0.000439296
0.00036942
0.000527441
0.000511227
0.000645478
0.000679008
0.000803135
0.000865526
0.000996332
0.00108695
0.00120381
0.00131835
0.00145251
0.00158032
0.00171685
0.00185825
0.00201273
0.002174
0.00234409
0.00251967
0.00270645
0.00290229
0.00310897
0.00332352
0.00354819
0.00378099
0.00402324
0.00427099
0.0045193
0.00476142
0.00499861
0.00523272
0.00545395
0.00563537
0.00573388
0.00567813
0.00534433
5.00793e-06
0.000469192
0.000308581
0.000438166
0.000370491
0.000525709
0.000512006
0.000643556
0.000679433
0.000801212
0.00086567
0.000994584
0.00108648
0.00120211
0.00131686
0.00145077
0.00157816
0.00171431
0.00185517
0.00200859
0.00216922
0.00233858
0.0025126
0.0026981
0.00289195
0.00309695
0.0033085
0.00352891
0.00375404
0.00398515
0.00421793
0.0044477
0.00466908
0.00488547
0.00509704
0.00529225
0.00544335
0.00551341
0.00544075
0.00511824
9.01957e-06
0.000464895
0.000310937
0.000434561
0.000373636
0.000520757
0.000515301
0.000638222
0.000682855
0.000795306
0.000868009
0.000988323
0.00108722
0.00119566
0.00131584
0.00144544
0.00157394
0.00170914
0.00184908
0.00200149
0.0021614
0.00232792
0.00250078
0.0026825
0.00287384
0.00307441
0.00328257
0.00349734
0.00371391
0.00392617
0.00413006
0.00432923
0.00452682
0.00471973
0.00489632
0.00503854
0.00512118
0.00511041
0.0049539
0.00455839
1.26322e-05
0.000461041
0.000312902
0.000432057
0.00037582
0.000517106
0.000516793
0.000634292
0.000683663
0.000791671
0.000868065
0.00098524
0.00108602
0.00119225
0.00131248
0.00144203
0.00156925
0.0017032
0.00184227
0.00199345
0.00215165
0.00231586
0.0024862
0.00266461
0.0028519
0.003047
0.00324737
0.00345071
0.00365295
0.0038499
0.00403629
0.00421438
0.00438957
0.00455845
0.00470729
0.00481812
0.00486926
0.00483285
0.00466311
0.00427278
1.76187e-05
0.00045485
0.000316357
0.000427156
0.000379957
0.00051057
0.000520979
0.000627631
0.000687175
0.000784676
0.000869202
0.000979017
0.00108378
0.00118893
0.001308
0.001436
0.00156241
0.00169506
0.0018331
0.00198242
0.00213872
0.00229973
0.00246683
0.00264063
0.00282241
0.00301035
0.00320158
0.0033915
0.00357377
0.00374621
0.00391362
0.00407967
0.0042418
0.00439199
0.00451779
0.00460365
0.00462975
0.0045684
0.00437452
0.00396171
2.25338e-05
0.000448413
0.000319572
0.000423097
0.000383299
0.000504712
0.000522995
0.000622013
0.000688216
0.00078013
0.000868161
0.000976084
0.00108005
0.00118417
0.00130223
0.00142923
0.00155454
0.00168568
0.00182191
0.00196909
0.00212274
0.00227997
0.00244252
0.0026104
0.00278456
0.00296246
0.00314014
0.00331287
0.00347612
0.00363178
0.00378593
0.00393983
0.00408783
0.00422107
0.00432885
0.00439834
0.00441209
0.00434398
0.00414827
0.00373461
2.88421e-05
0.000439494
0.000324388
0.000416673
0.000388612
0.000496434
0.000527585
0.000614151
0.000689387
0.0007743
0.000865127
0.000973284
0.00107499
0.00117771
0.00129493
0.00142119
0.00154457
0.00167407
0.00180774
0.00195239
0.0021028
0.00225559
0.00241214
0.00257219
0.00273576
0.00290032
0.00306116
0.00321347
0.00336003
0.00350568
0.00365082
0.00379328
0.00392711
0.00404563
0.00413973
0.00419925
0.00420887
0.0041447
0.00396264
0.00357451
3.53948e-05
0.000429665
0.000329105
0.000410897
0.000392797
0.000488545
0.000529151
0.000607828
0.000689207
0.000771165
0.000860967
0.000968502
0.00106919
0.00117039
0.00128649
0.00141121
0.0015328
0.00165979
0.00179081
0.00193178
0.00207855
0.00222578
0.00237556
0.00252607
0.00267542
0.00281902
0.00295856
0.00309707
0.00323433
0.00336984
0.00350257
0.00363232
0.00375724
0.00387455
0.00397796
0.00405743
0.00409504
0.00405942
0.00388912
0.00346061
4.3388e-05
0.0004172
0.00033516
0.000403193
0.000399002
0.000478773
0.000532902
0.000600036
0.000685258
0.000768068
0.000856698
0.00096197
0.00106259
0.0011613
0.00127651
0.0013988
0.00151887
0.00164217
0.00177064
0.00190655
0.00204891
0.00218826
0.00232747
0.0024637
0.0025953
0.00272471
0.00285424
0.00298266
0.00310676
0.00322265
0.00332734
0.00342068
0.00350631
0.00359156
0.00367976
0.00376174
0.00383552
0.00392748
0.0041091
0.00452004
5.19306e-05
0.000403125
0.000341365
0.000395845
0.000402949
0.000469675
0.000532225
0.000597458
0.000681367
0.000763033
0.000850268
0.000954679
0.00105424
0.00115088
0.00126426
0.00138444
0.00150193
0.00162128
0.00174599
0.00187636
0.00201237
0.00214179
0.00226463
0.00238398
0.00250493
0.00262707
0.00274764
0.00286275
0.00297018
0.00306994
0.00316444
0.00325867
0.00335821
0.00346249
0.00356156
0.0036501
0.00373683
0.00384906
0.00404037
0.00441186
6.19539e-05
0.000386313
0.000347807
0.000388482
0.000408338
0.000462248
0.000526005
0.000593337
0.000677637
0.00075737
0.000842655
0.000946177
0.00104391
0.00113868
0.00124932
0.00136757
0.00148164
0.00159642
0.00171568
0.00183876
0.00196433
0.00208049
0.00218881
0.00229827
0.00241215
0.00252652
0.00263681
0.00274042
0.0028373
0.00293087
0.00302692
0.00312774
0.00322612
0.00331453
0.00339171
0.00346533
0.00355261
0.00368314
0.0039075
0.00432168
7.26429e-05
0.000367859
0.0003542
0.000380683
0.00040852
0.000458971
0.000520251
0.000587501
0.000672182
0.000751228
0.000834035
0.000936161
0.00103176
0.00112406
0.00123176
0.00134735
0.00145756
0.00156634
0.00167852
0.0017919
0.00190367
0.00200771
0.00210843
0.00221009
0.00231278
0.00241321
0.00251179
0.00261282
0.0027182
0.00282329
0.00292203
0.00301064
0.00308825
0.00315706
0.00322219
0.0032938
0.00338839
0.00353145
0.00376728
0.00418363
8.482e-05
0.00034607
0.000359222
0.000377936
0.000406191
0.000454999
0.000514563
0.000579793
0.000663996
0.000743396
0.000823908
0.000924397
0.00101751
0.00110678
0.0012111
0.0013232
0.00142855
0.00152897
0.00163071
0.00173235
0.00183429
0.00193201
0.00202787
0.00212435
0.00222277
0.00231963
0.00241169
0.0024984
0.00258133
0.00266486
0.0027533
0.00284303
0.00292498
0.00299553
0.00305995
0.00313033
0.00322399
0.00336644
0.00360101
0.00401416
9.74833e-05
0.000325348
0.000360584
0.00037419
0.000401233
0.000449842
0.000509378
0.000572927
0.000655268
0.000733525
0.000811379
0.000910216
0.0010009
0.00108639
0.00118673
0.00129412
0.00139248
0.00148211
0.00157282
0.00166673
0.00176259
0.00185337
0.00194054
0.00202595
0.002112
0.00219917
0.00228821
0.0023811
0.00247423
0.00256239
0.00264137
0.0027101
0.0027699
0.00282488
0.00288136
0.00294889
0.00304198
0.0031843
0.00341853
0.00383178
0.000111113
0.000304062
0.000356805
0.000372056
0.000397605
0.000444694
0.000503196
0.00056465
0.000644845
0.000721537
0.00079629
0.000893095
0.000981239
0.00106201
0.0011575
0.00125829
0.00134754
0.00142688
0.00151025
0.00159794
0.00168699
0.00176889
0.00184563
0.00192212
0.00200331
0.00209175
0.00218439
0.00227608
0.00236067
0.00243506
0.00249801
0.00255134
0.00259845
0.00264458
0.00269621
0.00276223
0.00285579
0.00299927
0.00323441
0.00364796
0.000124959
0.000284642
0.000348343
0.000368671
0.00039313
0.000438455
0.00049578
0.00055485
0.000632531
0.000707752
0.000778809
0.00087268
0.000957914
0.00103286
0.00112203
0.00121461
0.00129489
0.00136693
0.00144423
0.00152524
0.00160699
0.00168253
0.00175318
0.00182395
0.0018976
0.0019758
0.00205744
0.00214101
0.00221958
0.00228779
0.00234368
0.00238965
0.00243031
0.0024714
0.00251948
0.00258321
0.00267546
0.00281818
0.00305288
0.00346623
0.000138773
0.000265547
0.00033546
0.000364167
0.000388893
0.000432053
0.000487569
0.000544114
0.000618424
0.000691494
0.000758237
0.000847977
0.000929614
0.00099754
0.00107894
0.00116383
0.0012382
0.00130416
0.00137464
0.00144774
0.00151975
0.00158536
0.00164628
0.00171086
0.00178379
0.0018653
0.00194741
0.00202314
0.00208815
0.00214214
0.00218664
0.00222458
0.00225964
0.00229674
0.00234193
0.0024035
0.00249411
0.0026356
0.00286942
0.00328229
0.000152496
0.000249147
0.000316961
0.000357238
0.000383882
0.000424897
0.000478377
0.000532041
0.000602105
0.000672452
0.000734065
0.000818073
0.00089548
0.000954595
0.00102789
0.00110808
0.00117842
0.00123793
0.00129981
0.00136505
0.00142947
0.00148903
0.00154408
0.00160189
0.0016668
0.00173994
0.00181603
0.00188632
0.00194469
0.00199062
0.00202689
0.00205779
0.00208763
0.00212105
0.00216366
0.00222333
0.00231249
0.00245284
0.00268583
0.00309829
0.000162985
0.000235203
0.000298939
0.000345793
0.000376267
0.000416322
0.000467917
0.000518561
0.000583911
0.00065068
0.000705103
0.000780367
0.00085438
0.0009083
0.000974074
0.00104865
0.00111385
0.00116624
0.001219
0.00127618
0.00133321
0.00138582
0.0014339
0.00148497
0.00154476
0.00161395
0.00168471
0.00174777
0.00179793
0.00183579
0.00186506
0.00189039
0.00191605
0.00194644
0.00198684
0.00204488
0.00213278
0.00227219
0.00250453
0.00291667
0.000170277
0.000225882
0.000280384
0.000328274
0.000365014
0.000405947
0.000455786
0.000502838
0.000562187
0.000624887
0.000673242
0.000739295
0.000809406
0.000858305
0.000915196
0.000982778
0.00104222
0.00108785
0.00113166
0.00118061
0.00123094
0.00127817
0.00132166
0.00136771
0.00142233
0.00148625
0.00155085
0.00160611
0.0016474
0.00167671
0.00169901
0.00171939
0.00174189
0.00177033
0.00180939
0.00186633
0.00195326
0.00209181
0.00232349
0.00273534
0.000174661
0.000216386
0.000262849
0.000309239
0.000349285
0.000391751
0.000440453
0.000484265
0.000537672
0.000596035
0.000638948
0.000694648
0.000758895
0.000803093
0.000850436
0.000909871
0.000963569
0.001003
0.00103844
0.00107899
0.00112293
0.00116597
0.00120678
0.0012505
0.00130205
0.00136002
0.00141574
0.00146087
0.00149243
0.00151356
0.00152966
0.00154591
0.001566
0.00159322
0.00163163
0.00168805
0.00177438
0.00191229
0.00214344
0.00255506
0.000175728
0.000207186
0.000246542
0.00028962
0.000328635
0.000371934
0.000420901
0.000462349
0.000509818
0.000563573
0.000601737
0.000646203
0.000702734
0.000742627
0.00078046
0.000830458
0.000878178
0.000912279
0.000940313
0.000973009
0.00101119
0.00105142
0.00109145
0.00113401
0.00118107
0.00123038
0.00127523
0.00130984
0.00133272
0.00134728
0.00135871
0.00137193
0.00139034
0.00141678
0.00145485
0.00151102
0.00159698
0.00173441
0.00196513
0.00237658
0.000173327
0.000197332
0.000230155
0.00026918
0.000305637
0.000347096
0.000395717
0.00043578
0.000478197
0.000526681
0.000560888
0.000594893
0.000641317
0.000676789
0.000706068
0.000745166
0.000786002
0.00081556
0.000837815
0.000863921
0.000897219
0.000935573
0.000975667
0.0010167
0.00105747
0.00109621
0.00112924
0.00115372
0.00116938
0.00117928
0.0011878
0.00119914
0.00121635
0.00124206
0.00127971
0.00133557
0.00142122
0.00155831
0.00178872
0.00220006
0.000167166
0.000186239
0.000213449
0.000248223
0.000281212
0.000318119
0.000363881
0.000402485
0.000440675
0.000484304
0.000515564
0.000541373
0.000576563
0.0006061
0.000628207
0.000655973
0.000687894
0.000712846
0.000731015
0.000752401
0.000782259
0.000819631
0.000859333
0.000896632
0.000929253
0.000956892
0.000978815
0.000994482
0.00100448
0.00101125
0.00101814
0.00102843
0.00104478
0.00106971
0.00110677
0.00116219
0.00124752
0.00138436
0.00161468
0.00202612
0.000157635
0.00017277
0.000195262
0.00022567
0.000255237
0.0002876
0.000328468
0.000362839
0.000395556
0.000433577
0.000462105
0.000483704
0.000509452
0.000531506
0.000547391
0.000565117
0.000586937
0.000605701
0.00062034
0.000638782
0.000666354
0.000702042
0.000738391
0.000769653
0.000794006
0.000812421
0.000825782
0.00083479
0.000840456
0.000844749
0.000850246
0.00085958
0.000875126
0.000899341
0.000935774
0.000990711
0.00107571
0.00121231
0.00144242
0.00185382
0.000144475
0.000156636
0.000174999
0.000200857
0.000226648
0.000253663
0.000289456
0.000319718
0.000346072
0.000377269
0.000401009
0.000418888
0.000438153
0.000452903
0.000463047
0.000473667
0.000486987
0.000499295
0.000509782
0.000524822
0.000548774
0.000580313
0.000611717
0.000637011
0.000654799
0.000666728
0.000674388
0.000678819
0.000681126
0.000683102
0.000687053
0.0006953
0.000710001
0.00073351
0.000769386
0.000823932
0.000908733
0.00104535
0.00127573
0.00168763
0.000127358
0.000137197
0.000151848
0.000173027
0.000194955
0.000216467
0.000246486
0.000272793
0.000292976
0.000317689
0.00033608
0.000347984
0.000361251
0.000368737
0.000371455
0.00037497
0.000380953
0.000386846
0.000392059
0.000402917
0.000423708
0.000452004
0.000478901
0.000498242
0.000509562
0.000515668
0.000518919
0.000520334
0.000520562
0.000520867
0.000523275
0.000530056
0.000543445
0.000565866
0.000600904
0.00065485
0.00073929
0.000875768
0.00110622
0.00151846
0.000107111
0.000114367
0.000125296
0.000141489
0.000159504
0.0001758
0.000199287
0.000221738
0.000236284
0.000254435
0.000268912
0.00027521
0.000283621
0.000288019
0.00028594
0.000283945
0.000285018
0.000286977
0.000287569
0.00029195
0.00030569
0.000327888
0.0003498
0.000363921
0.000369251
0.000369408
0.000368103
0.00036691
0.000366043
0.000365814
0.000367478
0.000373032
0.000384902
0.000405834
0.00043962
0.000492545
0.000576026
0.000711503
0.000940902
0.00135209
8.15725e-05
8.73759e-05
9.5519e-05
0.000107118
0.000120938
0.000132447
0.000148468
0.000165821
0.000174836
0.000184488
0.000193224
0.000192293
0.000191015
0.000188287
0.000179078
0.000168444
0.000161667
0.00015962
0.000159547
0.000163276
0.00017431
0.000191789
0.000209296
0.000220274
0.00022296
0.000220016
0.000215228
0.000210966
0.000208128
0.000207129
0.000208949
0.000215278
0.000228388
0.000251036
0.000287061
0.000342705
0.000429245
0.000567903
0.000800438
0.00121473
5.45271e-05
5.49543e-05
5.94656e-05
6.73971e-05
7.86406e-05
8.67867e-05
9.67907e-05
0.000109016
0.00011518
0.000119254
0.000126041
0.000125891
0.000123161
0.0001211
0.000115002
0.000105134
9.49167e-05
8.5713e-05
7.49501e-05
6.20252e-05
5.04978e-05
4.51759e-05
4.87229e-05
5.94424e-05
7.07414e-05
7.66839e-05
7.55489e-05
6.85733e-05
5.80658e-05
4.61705e-05
3.5203e-05
2.77059e-05
2.66788e-05
3.55483e-05
5.87991e-05
0.000103149
0.000180195
0.000311334
0.000538574
0.000950268
1.89319e-05
2.13078e-05
2.36288e-05
2.60545e-05
2.99996e-05
3.23601e-05
3.47459e-05
3.96087e-05
4.03554e-05
3.59764e-05
3.22064e-05
2.35351e-05
9.39694e-06
-5.06135e-06
-2.10808e-05
-3.89922e-05
-5.58841e-05
-6.76505e-05
-7.30728e-05
-7.28331e-05
-6.78587e-05
-6.0167e-05
-5.25541e-05
-4.85234e-05
-5.00983e-05
-5.67055e-05
-6.56061e-05
-7.37391e-05
-7.88481e-05
-7.98838e-05
-7.6351e-05
-6.7639e-05
-5.2379e-05
-2.81103e-05
9.27828e-06
6.6575e-05
0.000155562
0.00029777
0.000535112
0.000955588
-2.63123e-05
-1.92183e-05
-1.43628e-05
-1.28072e-05
-1.34159e-05
-1.65682e-05
-2.01572e-05
-2.00505e-05
-1.94353e-05
-2.15161e-05
-2.35835e-05
-2.69638e-05
-3.44555e-05
-4.25933e-05
-5.10981e-05
-6.09365e-05
-7.22287e-05
-8.34052e-05
-9.41703e-05
-0.000105595
-0.000118518
-0.000132648
-0.000147377
-0.000162772
-0.000179684
-0.000199048
-0.0002212
-0.000245956
-0.000273147
-0.000302925
-0.000335933
-0.000373231
-0.000416435
-0.000467992
-0.00053194
-0.000615138
-0.000729658
-0.000897492
-0.0011611
-0.0016091
-6.23591e-05
-6.28097e-05
-6.59932e-05
-7.14864e-05
-7.90401e-05
-8.65119e-05
-9.39599e-05
-0.000102501
-0.000112089
-0.000125501
-0.000141646
-0.000160071
-0.000181924
-0.000204881
-0.000226525
-0.00024584
-0.000261488
-0.000271265
-0.000274051
-0.000272901
-0.000272541
-0.000276084
-0.00028365
-0.000293597
-0.000303907
-0.000313065
-0.000320088
-0.000324272
-0.00032504
-0.00032191
-0.000314396
-0.000301789
-0.000282813
-0.000255175
-0.000214896
-0.000155158
-6.40549e-05
8.00969e-05
0.000319261
0.000741365
-0.000110552
-0.000110748
-0.00011371
-0.000117968
-0.000124838
-0.000132909
-0.000139297
-0.000146845
-0.000154911
-0.000163721
-0.000173274
-0.00018366
-0.000195987
-0.000209557
-0.000223389
-0.000237826
-0.000253803
-0.000271604
-0.000290815
-0.000311284
-0.000333328
-0.00035737
-0.000383556
-0.000411827
-0.000442151
-0.000474454
-0.000508685
-0.000544798
-0.000582798
-0.000622825
-0.000665302
-0.000711068
-0.00076159
-0.000819298
-0.00088821
-0.000975116
-0.00109187
-0.00126013
-0.00152186
-0.00196499
-0.000162528
-0.00016607
-0.000175332
-0.00018774
-0.000202828
-0.000220996
-0.000237821
-0.000255539
-0.000275403
-0.000297234
-0.000320632
-0.000344759
-0.000369467
-0.000393163
-0.000413308
-0.0004277
-0.000435994
-0.000440548
-0.000444829
-0.000451296
-0.000460802
-0.000472809
-0.000485938
-0.000498491
-0.00050909
-0.000516931
-0.000521695
-0.000523317
-0.000521785
-0.000516947
-0.000508392
-0.000495297
-0.000476222
-0.000448752
-0.000408862
-0.000349741
-0.000259513
-0.000116517
0.000121202
0.000541595
-0.000213934
-0.000215604
-0.000221382
-0.000230195
-0.000240438
-0.000253946
-0.000267099
-0.000279597
-0.000293077
-0.000307774
-0.000323423
-0.000339409
-0.0003562
-0.000373991
-0.000392594
-0.000411754
-0.000431732
-0.000453035
-0.000476023
-0.000500757
-0.000527151
-0.000555151
-0.000584799
-0.00061621
-0.000649323
-0.000683975
-0.000719987
-0.000757251
-0.000795793
-0.000835845
-0.000877916
-0.000922912
-0.000972331
-0.00102862
-0.00109582
-0.00118073
-0.00129523
-0.00146099
-0.00171999
-0.00216021
-0.000281689
-0.000287465
-0.000300112
-0.000318973
-0.000340627
-0.000365315
-0.000391311
-0.000417063
-0.000442672
-0.000468415
-0.000493842
-0.000516925
-0.000535794
-0.000549575
-0.000559141
-0.000566741
-0.00057448
-0.000583756
-0.000595031
-0.000607907
-0.000621327
-0.000634072
-0.000645113
-0.000653837
-0.000660109
-0.000664054
-0.000665793
-0.000665332
-0.000662504
-0.000656969
-0.00064815
-0.000635121
-0.000616382
-0.000589483
-0.000550376
-0.000492237
-0.000403175
-0.000261531
-2.53494e-05
0.000393321
-0.00032852
-0.000329592
-0.000334357
-0.000344346
-0.000357984
-0.000373922
-0.000391593
-0.000410193
-0.000429103
-0.000449426
-0.000472275
-0.000496131
-0.000518168
-0.000537223
-0.000554199
-0.000570272
-0.000586161
-0.000602245
-0.000619101
-0.000637288
-0.00065713
-0.000678561
-0.000701416
-0.000725623
-0.000751215
-0.000778245
-0.000806775
-0.00083684
-0.000868546
-0.000902145
-0.000938177
-0.00097758
-0.0010219
-0.00107362
-0.0011368
-0.00121828
-0.00132994
-0.00149348
-0.00175093
-0.00219038
-0.000415132
-0.000421557
-0.000435098
-0.000456487
-0.000484023
-0.00051411
-0.000545329
-0.000575837
-0.000602991
-0.000626546
-0.000647454
-0.000665469
-0.000680058
-0.000691396
-0.00070057
-0.000708138
-0.00071421
-0.0007187
-0.000721921
-0.000724191
-0.00072567
-0.000726144
-0.000725351
-0.000723067
-0.000719293
-0.000714109
-0.000707602
-0.00069972
-0.000690287
-0.000678951
-0.000665158
-0.000647991
-0.000625965
-0.000596637
-0.000555976
-0.000497177
-0.000408408
-0.000268091
-3.44282e-05
0.000380286
0.00629818
0.00637021
0.00664756
0.00682195
0.00681574
0.00663448
0.00633778
0.00599602
0.00566111
0.0053612
0.00510707
0.0048985
0.00472779
0.00458408
0.00445684
0.00433761
0.0042206
0.00410237
0.00398145
0.00385771
0.00373198
0.00360548
0.00347956
0.00335526
0.00323329
0.00311377
0.0029965
0.00288083
0.00276598
0.00265113
0.00253543
0.00241829
0.00229901
0.00217734
0.0020528
0.00192536
0.00179455
0.00166014
0.00152141
0.00137765
0.001228
0.00107092
0.000905209
0.000728555
0.000539381
0.000334933
0.000113991
-0.000126677
-0.000389606
-0.000685154
-0.00101173
-0.00136784
-0.00176888
-0.00223049
-0.00277778
-0.00339693
-0.00407998
-0.00482557
-0.00558857
-0.00632178
-0.00692674
-0.00726878
-0.0072831
-0.00701923
-0.00661891
-0.00618791
-0.00577828
-0.00547658
-0.00531754
-0.00522073
-0.00517203
-0.0051925
-0.00525732
-0.00533217
-0.00540901
-0.00549852
-0.00559043
-0.00568978
-0.00579635
-0.00589441
-0.00600165
-0.00611043
-0.00620801
-0.00631556
-0.00641898
-0.0065033
-0.00658754
-0.00667105
-0.00674237
-0.00680339
-0.00686174
-0.00691827
-0.00696836
-0.00701363
-0.00706358
-0.00711324
-0.00716355
-0.00721332
-0.00726442
-0.00731061
0.00497297
0.00504646
0.00549827
0.00593891
0.00620345
0.00625222
0.00611007
0.00584916
0.00554611
0.00525449
0.00500123
0.0047948
0.00463151
0.00449979
0.00438608
0.00427912
0.00417159
0.00405986
0.00394305
0.00382184
0.00369789
0.00357289
0.00344846
0.00332564
0.00320513
0.00308695
0.00297086
0.00285619
0.00274218
0.00262802
0.00251288
0.00239618
0.00227721
0.00215575
0.00203128
0.00190399
0.00177335
0.0016392
0.00150072
0.00135723
0.00120782
0.00105097
0.000885449
0.000709033
0.000520151
0.000316091
9.56835e-05
-0.000144494
-0.000406367
-0.000701115
-0.00102651
-0.00138108
-0.00178062
-0.00223881
-0.00278168
-0.00339518
-0.00407079
-0.00480771
-0.00556233
-0.00628886
-0.0068908
-0.0072342
-0.00725345
-0.00699511
-0.00660078
-0.00617537
-0.00576833
-0.00546742
-0.00530976
-0.00521403
-0.0051658
-0.00518693
-0.00525223
-0.00532728
-0.00540449
-0.00549457
-0.00558698
-0.00568675
-0.0057937
-0.00589208
-0.00599971
-0.00610882
-0.00620663
-0.00631445
-0.00641811
-0.00650259
-0.00658698
-0.00667063
-0.00674204
-0.00680314
-0.00686155
-0.00691813
-0.00696825
-0.00701354
-0.00706351
-0.00711318
-0.00716351
-0.0072133
-0.0072644
-0.00731059
0.004781
0.00488578
0.00537951
0.00586514
0.0061707
0.00625243
0.00613089
0.00587695
0.0055701
0.00526878
0.00500423
0.0047876
0.00461719
0.00448199
0.00436762
0.0042614
0.00415473
0.00404318
0.00392558
0.00380277
0.00367674
0.0035496
0.00342326
0.00329896
0.00317739
0.00305854
0.00294201
0.00282701
0.00271271
0.00259823
0.00248279
0.0023658
0.00224664
0.0021251
0.00200067
0.00187322
0.00174213
0.00160735
0.00146812
0.00132394
0.00117376
0.0010163
0.000850161
0.000673339
0.000484384
0.000280293
6.04792e-05
-0.000179725
-0.00044082
-0.000733465
-0.00105706
-0.00140965
-0.00180707
-0.00226017
-0.00279232
-0.00339269
-0.00405216
-0.00476603
-0.00549308
-0.00619177
-0.00677488
-0.0071199
-0.0071615
-0.00693342
-0.00656443
-0.00615824
-0.00576616
-0.00547306
-0.00531699
-0.00522099
-0.00517183
-0.00519117
-0.00525499
-0.00532925
-0.00540567
-0.00549492
-0.00558664
-0.00568599
-0.0057927
-0.00589081
-0.0059982
-0.00610719
-0.00620492
-0.00631273
-0.00641646
-0.00650104
-0.00658559
-0.00666941
-0.00674101
-0.00680229
-0.00686087
-0.0069176
-0.00696787
-0.00701328
-0.00706333
-0.00711307
-0.00716344
-0.00721327
-0.00726443
-0.00731063
0.00418454
0.00426866
0.00475746
0.00526438
0.00561429
0.00575879
0.00570868
0.00552278
0.00527274
0.00501499
0.00478237
0.00458854
0.00443506
0.00431434
0.00421426
0.00412271
0.00403057
0.00393252
0.00382665
0.00371338
0.00359478
0.0034734
0.00335173
0.0032315
0.00311373
0.00299858
0.00288562
0.00277392
0.00266248
0.0025504
0.00243687
0.00232143
0.00220348
0.00208295
0.0019593
0.00183264
0.00170226
0.00156819
0.00142949
0.00128581
0.00113593
0.000978726
0.000812753
0.000636079
0.00044748
0.000243626
2.4468e-05
-0.000215606
-0.000475781
-0.000765947
-0.00108787
-0.00143838
-0.00183286
-0.00227991
-0.00279996
-0.0033848
-0.00402448
-0.00471411
-0.0054129
-0.00608306
-0.00664753
-0.0069929
-0.00705568
-0.00685654
-0.0065129
-0.0061292
-0.00575281
-0.00546647
-0.00531164
-0.00521698
-0.00516875
-0.0051878
-0.00525051
-0.00532382
-0.00540019
-0.00548973
-0.0055816
-0.00568107
-0.00578792
-0.00588624
-0.00599392
-0.00610322
-0.00620114
-0.00630908
-0.00641308
-0.006498
-0.00658284
-0.00666694
-0.00673886
-0.00680044
-0.0068593
-0.00691629
-0.0069668
-0.00701242
-0.00706266
-0.00711255
-0.00716303
-0.007213
-0.0072643
-0.00731055
0.00391804
0.00402082
0.00453478
0.00506987
0.00544882
0.00562194
0.00559813
0.00543419
0.00520072
0.00495436
0.00472893
0.00453926
0.00438817
0.00426949
0.004172
0.00408379
0.00399541
0.00390094
0.00379791
0.00368643
0.00356852
0.003447
0.00332473
0.00320383
0.00308557
0.00297019
0.00285722
0.00274559
0.00263414
0.00252181
0.00240782
0.00229174
0.00217312
0.00205196
0.0019278
0.00180073
0.00167004
0.00153565
0.00139654
0.00125232
0.00110183
0.000943915
0.000777403
0.000600086
0.000411331
0.000207236
-1.16909e-05
-0.000251366
-0.000511026
-0.000799033
-0.00111925
-0.0014673
-0.0018579
-0.00229865
-0.00280635
-0.00337433
-0.00399404
-0.00465837
-0.00532769
-0.00596759
-0.00650971
-0.00685079
-0.00693148
-0.00676457
-0.00645289
-0.00609465
-0.00573831
-0.00546353
-0.00531258
-0.00522002
-0.00517258
-0.00519016
-0.00525085
-0.005323
-0.00539875
-0.00548758
-0.00557876
-0.00567763
-0.00578408
-0.0058821
-0.00598949
-0.00609867
-0.00619653
-0.00630434
-0.00640838
-0.00649352
-0.00657858
-0.00666294
-0.00673528
-0.00679732
-0.00685657
-0.00691396
-0.0069649
-0.00701092
-0.00706146
-0.00711162
-0.00716231
-0.0072125
-0.00726402
-0.0073104
0.00359197
0.00368635
0.00419593
0.00473194
0.00511669
0.00529998
0.00528966
0.00514122
0.00492434
0.00469515
0.00448709
0.00431463
0.00418026
0.00407742
0.00399459
0.00391973
0.00384335
0.00375965
0.00366628
0.0035635
0.0034535
0.0033393
0.00322385
0.00310935
0.00299701
0.0028871
0.00277904
0.00267183
0.00256422
0.00245529
0.00234416
0.00223063
0.00211423
0.00199515
0.00187286
0.00174753
0.00161839
0.00148534
0.00134743
0.00120411
0.00105447
0.000897113
0.000731344
0.000554523
0.000366651
0.000163335
-5.45281e-05
-0.000292853
-0.000551519
-0.000836554
-0.00115389
-0.00149873
-0.00188446
-0.002318
-0.00281237
-0.00336268
-0.00396126
-0.00459965
-0.00523954
-0.00584879
-0.00636894
-0.00670671
-0.00680651
-0.00667258
-0.00639167
-0.00605943
-0.00572325
-0.00545909
-0.00531021
-0.00521818
-0.00517147
-0.00518819
-0.00524712
-0.00531788
-0.0053931
-0.0054818
-0.00557282
-0.00567149
-0.00577783
-0.00587585
-0.00598325
-0.00609262
-0.00619057
-0.00629827
-0.0064025
-0.00648805
-0.0065734
-0.0066581
-0.00673091
-0.00679345
-0.00685312
-0.00691096
-0.00696237
-0.00700887
-0.00705975
-0.00711026
-0.0071612
-0.00721172
-0.00726349
-0.00731006
0.00336239
0.00345658
0.00396514
0.00449676
0.00487544
0.00505315
0.00504063
0.0048961
0.00469025
0.00447848
0.00429268
0.00414503
0.00403543
0.00395468
0.00388955
0.00382765
0.00376026
0.00368275
0.00359397
0.00349524
0.00338946
0.00327987
0.00316925
0.00305944
0.00295125
0.00284466
0.002739
0.00263334
0.00252666
0.00241823
0.00230738
0.002194
0.00207771
0.00195872
0.00183649
0.00171117
0.00158197
0.00144876
0.00131063
0.00116694
0.00101699
0.000859133
0.000693077
0.000515889
0.000327936
0.000124798
-9.28635e-05
-0.000330201
-0.000588204
-0.000870735
-0.00118507
-0.00152707
-0.00190736
-0.00233289
-0.00281431
-0.00334642
-0.00392344
-0.00453622
-0.00514682
-0.00572601
-0.006225
-0.00655875
-0.00667418
-0.00657103
-0.0063223
-0.00601709
-0.00570212
-0.00545045
-0.00530565
-0.00521625
-0.00517112
-0.00518743
-0.00524482
-0.00531454
-0.00538945
-0.00547782
-0.00556842
-0.0056666
-0.00577258
-0.00587036
-0.0059775
-0.00608681
-0.00618468
-0.00629217
-0.00639645
-0.00648229
-0.00656787
-0.00665281
-0.00672609
-0.00678915
-0.00684926
-0.00690756
-0.00695951
-0.00700653
-0.0070578
-0.00710871
-0.00715994
-0.0072108
-0.00726288
-0.00730968
0.00322651
0.00334264
0.00386673
0.00439178
0.0047445
0.00488198
0.00482617
0.00464917
0.00442894
0.00421953
0.00404702
0.00391904
0.00383075
0.00376884
0.003718
0.00366581
0.00360476
0.00353182
0.00344727
0.00335361
0.00325421
0.00315221
0.00304983
0.00294822
0.00284762
0.00274762
0.00264741
0.00254621
0.00244323
0.00233804
0.00223019
0.00211968
0.00200619
0.00188983
0.00177015
0.00164706
0.00151997
0.00138849
0.00125202
0.00110964
0.000960992
0.000804203
0.000639258
0.000463172
0.000276323
7.47179e-05
-0.000141657
-0.000376761
-0.000632887
-0.000912169
-0.00122213
-0.00156007
-0.00193351
-0.0023498
-0.0028176
-0.00333061
-0.00388519
-0.00447183
-0.00505346
-0.00560332
-0.00608102
-0.00640938
-0.00653903
-0.00646687
-0.00625116
-0.00597398
-0.00568111
-0.00544263
-0.00530218
-0.00521461
-0.00517063
-0.00518606
-0.00524186
-0.00531031
-0.00538433
-0.00547216
-0.00556235
-0.00566012
-0.00576587
-0.0058635
-0.00597046
-0.00607986
-0.0061778
-0.00628512
-0.00638954
-0.00647579
-0.00656166
-0.00664694
-0.00672076
-0.00678439
-0.00684499
-0.00690381
-0.00695634
-0.00700394
-0.00705561
-0.00710696
-0.00715851
-0.00720975
-0.00726213
-0.00730918
0.00303746
0.00309083
0.00354129
0.00400172
0.00431359
0.00444233
0.00441069
0.00428069
0.00411623
0.00396036
0.00383302
0.00373859
0.00367073
0.00361774
0.00356865
0.0035161
0.00345615
0.00338755
0.00331093
0.003228
0.00314078
0.00305095
0.00295961
0.00286727
0.00277398
0.00267949
0.00258336
0.00248526
0.00238476
0.00228174
0.00217589
0.00206726
0.00195551
0.0018407
0.00172234
0.00160033
0.00147412
0.00134324
0.00120728
0.00106518
0.000916787
0.000760184
0.000595408
0.000419672
0.000233078
3.23443e-05
-0.000183337
-0.000416865
-0.00067125
-0.000947946
-0.00125342
-0.00158714
-0.00195402
-0.0023603
-0.00281457
-0.00330875
-0.00384033
-0.0044012
-0.00495484
-0.00547605
-0.00593242
-0.00625534
-0.00639768
-0.00635464
-0.00617218
-0.00592369
-0.00565353
-0.00542932
-0.00529452
-0.00520996
-0.00516789
-0.00518308
-0.00523747
-0.00530483
-0.00537857
-0.00546621
-0.00555609
-0.00565354
-0.0057591
-0.00585663
-0.00596342
-0.00607286
-0.00617081
-0.00627791
-0.00638243
-0.00646906
-0.00655521
-0.00664079
-0.00671515
-0.00677938
-0.00684048
-0.00689984
-0.00695297
-0.00700118
-0.00705329
-0.00710509
-0.00715698
-0.00720864
-0.00726135
-0.00730868
0.00491379
0.0048332
0.00434516
0.00383914
0.00347538
0.0032891
0.0032588
0.00332321