/*--------------------------------*- C++ -*----------------------------------*\
| =========                 |                                                 |
| \\      /  F ield         | OpenFOAM: The Open Source CFD Toolbox           |
|  \\    /   O peration     | Version:  2312                                  |
|   \\  /    A nd           | Website:  www.openfoam.com                      |
|    \\/     M anipulation  |                                                 |
\*---------------------------------------------------------------------------*/
FoamFile
{
    version     2.0;
    format      ascii;
    arch        "LSB;label=32;scalar=64";
    class       surfaceScalarField;
    location    "0.65";
    object      phi;
}
// * * * * * * * * * * * * * * * * * * * * * * * * * * * * * * * * * * * * * //

dimensions      [0 3 -1 0 0 0 0];

oriented        oriented;

internalField   nonuniform List<scalar> 
11020
(
3.87759e-06
-6.61696e-08
3.87724e-06
5.43053e-08
3.87735e-06
-4.52829e-08
3.87775e-06
3.34105e-08
3.87779e-06
-3.21068e-08
3.87793e-06
2.51863e-08
3.87731e-06
-1.86643e-08
3.87737e-06
1.95417e-08
3.8766e-06
-1.1003e-08
3.87682e-06
1.18864e-08
3.876e-06
-7.70358e-09
3.87621e-06
7.24277e-09
3.87539e-06
-5.42865e-09
3.87547e-06
5.08372e-09
3.87465e-06
-2.77148e-09
3.87453e-06
4.40926e-09
3.87372e-06
-3.27971e-10
3.87342e-06
4.76017e-09
3.87262e-06
1.39005e-09
3.87224e-06
4.9312e-09
3.87145e-06
2.14919e-09
3.87097e-06
4.69141e-09
3.87019e-06
2.46678e-09
3.86961e-06
4.32818e-09
3.86882e-06
2.68999e-09
3.86815e-06
4.05002e-09
3.86733e-06
2.86354e-09
3.86659e-06
3.84969e-09
3.86571e-06
3.00054e-09
3.86484e-06
3.75469e-09
3.8638e-06
3.25342e-09
3.86265e-06
4.02629e-09
3.86126e-06
4.04461e-09
3.8597e-06
5.11935e-09
3.8579e-06
5.62958e-09
3.85593e-06
6.81133e-09
3.85373e-06
7.49495e-09
3.8513e-06
8.81554e-09
3.84857e-06
1.00036e-08
1.18076e-08
3.84558e-06
4.18306e-06
-6.33698e-08
4.18749e-06
4.98711e-08
4.18366e-06
-4.14481e-08
4.18801e-06
2.90595e-08
4.18485e-06
-2.89494e-08
4.18826e-06
2.17768e-08
4.18464e-06
-1.50377e-08
4.18743e-06
1.67447e-08
4.1843e-06
-7.87205e-09
4.1867e-06
9.48829e-09
4.18395e-06
-4.95395e-09
4.18583e-06
5.36778e-09
4.18343e-06
-3.03496e-09
4.18472e-06
3.79106e-09
4.18279e-06
-8.34639e-10
4.1835e-06
3.69506e-09
4.1819e-06
1.27672e-09
4.18221e-06
4.44909e-09
4.18084e-06
2.75857e-09
4.18088e-06
4.89069e-09
4.17959e-06
3.43434e-09
4.17944e-06
4.84499e-09
4.17825e-06
3.65506e-09
4.17793e-06
4.64746e-09
4.17684e-06
3.78804e-09
4.17635e-06
4.53098e-09
4.17528e-06
3.94236e-09
4.1746e-06
4.52231e-09
4.17343e-06
4.17447e-09
4.17247e-06
4.714e-09
4.17105e-06
4.67288e-09
4.16972e-06
5.36181e-09
4.16806e-06
5.70276e-09
4.1666e-06
6.57135e-09
4.16508e-06
7.15112e-09
4.16382e-06
8.07194e-09
4.16257e-06
8.74752e-09
4.16167e-06
9.71613e-09
4.16109e-06
1.05853e-08
1.16762e-08
4.16122e-06
4.51661e-06
-5.99215e-08
4.52073e-06
4.57552e-08
4.51661e-06
-3.73291e-08
4.52022e-06
2.54554e-08
4.5173e-06
-2.60387e-08
4.52022e-06
1.88643e-08
4.51687e-06
-1.16897e-08
4.51916e-06
1.44489e-08
4.51651e-06
-5.22037e-09
4.51839e-06
7.60667e-09
4.51613e-06
-2.69219e-09
4.51747e-06
4.02741e-09
4.51546e-06
-1.02154e-09
4.51622e-06
3.02659e-09
4.51462e-06
7.73627e-10
4.51493e-06
3.38496e-09
4.51356e-06
2.64749e-09
4.51358e-06
4.42236e-09
4.51236e-06
3.97588e-09
4.51223e-06
5.02058e-09
4.51112e-06
4.54608e-09
4.51084e-06
5.12823e-09
4.50977e-06
4.72175e-09
4.50934e-06
5.08569e-09
4.5083e-06
4.82067e-09
4.50771e-06
5.12451e-09
4.50665e-06
4.99631e-09
4.50591e-06
5.27069e-09
4.50479e-06
5.29589e-09
4.50375e-06
5.75353e-09
4.50229e-06
6.12631e-09
4.50085e-06
6.80344e-09
4.49918e-06
7.37627e-09
4.49771e-06
8.03632e-09
4.49628e-06
8.58481e-09
4.49511e-06
9.23826e-09
4.494e-06
9.86138e-09
4.49316e-06
1.05573e-08
4.49256e-06
1.11849e-08
1.17702e-08
4.49246e-06
4.87787e-06
-5.68477e-08
4.88122e-06
4.24054e-08
4.87753e-06
-3.36326e-08
4.88022e-06
2.27664e-08
4.87748e-06
-2.33004e-08
4.87998e-06
1.63654e-08
4.87701e-06
-8.71991e-09
4.87895e-06
1.25074e-08
4.8766e-06
-2.87482e-09
4.878e-06
6.20636e-09
4.87612e-06
-8.08935e-10
4.87689e-06
3.25427e-09
4.87535e-06
5.21396e-10
4.8754e-06
2.97411e-09
4.87439e-06
1.78458e-09
4.87414e-06
3.63868e-09
4.87332e-06
3.46873e-09
4.87286e-06
4.87796e-09
4.87198e-06
4.85604e-09
4.87142e-06
5.58217e-09
4.87056e-06
5.41006e-09
4.86992e-06
5.76133e-09
4.86906e-06
5.58166e-09
4.86833e-06
5.81467e-09
4.86743e-06
5.72463e-09
4.86656e-06
5.99385e-09
4.86549e-06
6.06844e-09
4.86433e-06
6.4323e-09
4.86295e-06
6.67401e-09
4.86159e-06
7.11647e-09
4.86016e-06
7.556e-09
4.85879e-06
8.1719e-09
4.85745e-06
8.70928e-09
4.85623e-06
9.26531e-09
4.85509e-06
9.71812e-09
4.85415e-06
1.01849e-08
4.8534e-06
1.06019e-08
4.85295e-06
1.10106e-08
4.8528e-06
1.13365e-08
1.15698e-08
4.853e-06
5.26757e-06
-5.3768e-08
5.27088e-06
3.90934e-08
5.26725e-06
-3.00049e-08
5.26984e-06
2.0182e-08
5.26678e-06
-2.02461e-08
5.26927e-06
1.38792e-08
5.26637e-06
-5.82516e-09
5.26842e-06
1.04589e-08
5.26606e-06
-5.16268e-10
5.2673e-06
4.96416e-09
5.26538e-06
1.11318e-09
5.26596e-06
2.68102e-09
5.26452e-06
1.96221e-09
5.26435e-06
3.13905e-09
5.26339e-06
2.74023e-09
5.26306e-06
3.97204e-09
5.26222e-06
4.30522e-09
5.26177e-06
5.32811e-09
5.26092e-06
5.70554e-09
5.26034e-06
6.16858e-09
5.25945e-06
6.29594e-09
5.25875e-06
6.46193e-09
5.25783e-06
6.50731e-09
5.25701e-06
6.63415e-09
5.256e-06
6.73005e-09
5.25503e-06
6.96514e-09
5.25394e-06
7.15691e-09
5.25284e-06
7.53587e-09
5.25152e-06
7.99652e-09
5.25003e-06
8.60661e-09
5.24841e-06
9.17362e-09
5.2469e-06
9.68392e-09
5.24553e-06
1.0079e-08
5.24438e-06
1.04156e-08
5.24337e-06
1.07202e-08
5.24256e-06
1.09946e-08
5.24192e-06
1.12421e-08
5.24152e-06
1.14142e-08
5.24135e-06
1.15024e-08
1.15087e-08
5.24142e-06
5.68821e-06
-5.05231e-08
5.69167e-06
3.56369e-08
5.68797e-06
-2.63043e-08
5.69065e-06
1.74987e-08
5.68738e-06
-1.69746e-08
5.68977e-06
1.14924e-08
5.68696e-06
-3.01644e-09
5.68895e-06
8.46798e-09
5.68686e-06
1.57996e-09
5.68769e-06
4.12548e-09
5.68616e-06
2.64803e-09
5.68614e-06
2.70391e-09
5.68529e-06
2.80752e-09
5.68466e-06
3.77103e-09
5.68366e-06
3.73692e-09
5.68321e-06
4.42733e-09
5.68243e-06
5.08238e-09
5.68191e-06
5.85122e-09
5.68115e-06
6.4631e-09
5.68049e-06
6.82742e-09
5.67964e-06
7.14683e-09
5.67886e-06
7.24352e-09
5.67791e-06
7.45585e-09
5.677e-06
7.54731e-09
5.67593e-06
7.79732e-09
5.67479e-06
8.10013e-09
5.67345e-06
8.49903e-09
5.67201e-06
8.97882e-09
5.67048e-06
9.52231e-09
5.66901e-06
1.0082e-08
5.66761e-06
1.05697e-08
5.66631e-06
1.09815e-08
5.6651e-06
1.12955e-08
5.66399e-06
1.15203e-08
5.66303e-06
1.16824e-08
5.66225e-06
1.17704e-08
5.66171e-06
1.17881e-08
5.66141e-06
1.17141e-08
5.66135e-06
1.15592e-08
1.13132e-08
5.66155e-06
6.14243e-06
-4.70841e-08
6.14607e-06
3.19941e-08
6.14221e-06
-2.2443e-08
6.14502e-06
1.46919e-08
6.1416e-06
-1.35511e-08
6.14398e-06
9.10821e-09
6.14116e-06
-1.95937e-10
6.14304e-06
6.58872e-09
6.14108e-06
3.53545e-09
6.14171e-06
3.49966e-09
6.14043e-06
3.93095e-09
6.14012e-06
3.00874e-09
6.13929e-06
3.63779e-09
6.13865e-06
4.41264e-09
6.13756e-06
4.8236e-09
6.13703e-06
4.96422e-09
6.1362e-06
5.90592e-09
6.13562e-06
6.43349e-09
6.13483e-06
7.25142e-09
6.13415e-06
7.50993e-09
6.13327e-06
8.02634e-09
6.13246e-06
8.05038e-09
6.13147e-06
8.44696e-09
6.1305e-06
8.52307e-09
6.12936e-06
8.93166e-09
6.12819e-06
9.27403e-09
6.12685e-06
9.84071e-09
6.12534e-06
1.04814e-08
6.12375e-06
1.11192e-08
6.12223e-06
1.16001e-08
6.12084e-06
1.19581e-08
6.1196e-06
1.22197e-08
6.11846e-06
1.24366e-08
6.1174e-06
1.25774e-08
6.11646e-06
1.26214e-08
6.1157e-06
1.25399e-08
6.11512e-06
1.23679e-08
6.11476e-06
1.20697e-08
6.11464e-06
1.16745e-08
1.10792e-08
6.11488e-06
6.63295e-06
-4.34726e-08
6.63674e-06
2.82037e-08
6.63278e-06
-1.84791e-08
6.63558e-06
1.18878e-08
6.63215e-06
-1.01174e-08
6.63438e-06
6.87242e-09
6.63183e-06
2.35212e-09
6.63328e-06
5.14497e-09
6.63171e-06
5.10582e-09
6.63184e-06
3.36385e-09
6.63101e-06
4.76374e-09
6.63053e-06
3.48941e-09
6.62946e-06
4.7098e-09
6.62893e-06
4.94187e-09
6.62778e-06
5.9733e-09
6.62721e-06
5.53445e-09
6.62623e-06
6.88664e-09
6.62564e-06
7.02007e-09
6.6247e-06
8.19437e-09
6.62404e-06
8.16952e-09
6.62304e-06
9.02774e-09
6.62225e-06
8.84034e-09
6.62117e-06
9.52217e-09
6.62021e-06
9.4829e-09
6.61898e-06
1.01682e-08
6.61762e-06
1.06313e-08
6.616e-06
1.14595e-08
6.61451e-06
1.19719e-08
6.61304e-06
1.25926e-08
6.61177e-06
1.28664e-08
6.6105e-06
1.32279e-08
6.60935e-06
1.33681e-08
6.60822e-06
1.35715e-08
6.60722e-06
1.3573e-08
6.60629e-06
1.35581e-08
6.60551e-06
1.3314e-08
6.60487e-06
1.3008e-08
6.60443e-06
1.25124e-08
6.604e-06
1.21031e-08
1.13277e-08
6.60375e-06
7.16266e-06
-3.96989e-08
7.16658e-06
2.42798e-08
7.16251e-06
-1.44127e-08
7.1653e-06
9.0984e-09
7.16188e-06
-6.69432e-09
7.16397e-06
4.7859e-09
7.16168e-06
4.63658e-09
7.16273e-06
4.09679e-09
7.16154e-06
6.30123e-09
7.16126e-06
3.63833e-09
7.16054e-06
5.48417e-09
7.15998e-06
4.05056e-09
7.15894e-06
5.75014e-09
7.15834e-06
5.54106e-09
7.15726e-06
7.05039e-09
7.15654e-06
6.25621e-09
7.15552e-06
7.91048e-09
7.15481e-06
7.72675e-09
7.15381e-06
9.1898e-09
7.15306e-06
8.92058e-09
7.15202e-06
1.00749e-08
7.15109e-06
9.7634e-09
7.14989e-06
1.0728e-08
7.14861e-06
1.0758e-08
7.14703e-06
1.17526e-08
7.14556e-06
1.20987e-08
7.14416e-06
1.2864e-08
7.14298e-06
1.31465e-08
7.14186e-06
1.37104e-08
7.14079e-06
1.39443e-08
7.13964e-06
1.43708e-08
7.13851e-06
1.45001e-08
7.1373e-06
1.47776e-08
7.13612e-06
1.47593e-08
7.13492e-06
1.47583e-08
7.13377e-06
1.44591e-08
7.13267e-06
1.4114e-08
7.13177e-06
1.34047e-08
7.13163e-06
1.22525e-08
1.06749e-08
7.13228e-06
7.73471e-06
-3.58007e-08
7.73869e-06
2.02917e-08
7.73463e-06
-1.03502e-08
7.73723e-06
6.49672e-09
7.73407e-06
-3.53414e-09
7.73563e-06
3.2259e-09
7.73418e-06
6.09135e-09
7.73393e-06
4.34888e-09
7.73384e-06
6.38542e-09
7.73307e-06
4.41196e-09
7.73254e-06
6.01525e-09
7.73154e-06
5.04375e-09
7.73083e-06
6.46393e-09
7.72988e-06
6.48941e-09
7.72911e-06
7.82251e-09
7.72803e-06
7.33861e-09
7.72719e-06
8.74934e-09
7.72618e-06
8.73861e-09
7.72532e-06
1.00446e-08
7.7243e-06
9.94717e-09
7.72336e-06
1.10138e-08
7.72216e-06
1.09599e-08
7.7209e-06
1.19919e-08
7.71932e-06
1.23324e-08
7.71786e-06
1.32188e-08
7.71641e-06
1.35467e-08
7.71517e-06
1.4098e-08
7.71397e-06
1.4354e-08
7.71295e-06
1.47304e-08
7.71206e-06
1.48288e-08
7.71145e-06
1.4985e-08
7.71115e-06
1.47981e-08
7.71125e-06
1.46725e-08
7.71168e-06
1.43355e-08
7.71241e-06
1.4031e-08
7.71327e-06
1.35921e-08
7.71423e-06
1.31589e-08
7.71505e-06
1.25838e-08
7.7152e-06
1.20977e-08
1.1213e-08
7.71466e-06
8.35247e-06
-3.18127e-08
8.35647e-06
1.62935e-08
8.35247e-06
-6.34881e-09
8.35481e-06
4.15248e-09
8.35202e-06
-7.40797e-10
8.35296e-06
2.28172e-09
8.35258e-06
6.47241e-09
8.35149e-06
5.44064e-09
8.35139e-06
6.48378e-09
8.35042e-06
5.38568e-09
8.35003e-06
6.40921e-09
8.34886e-06
6.2043e-09
8.34825e-06
7.07558e-09
8.34716e-06
7.58381e-09
8.34647e-06
8.51277e-09
8.34525e-06
8.55848e-09
8.34444e-06
9.56156e-09
8.34329e-06
9.88032e-09
8.34242e-06
1.09186e-08
8.3412e-06
1.11709e-08
8.3401e-06
1.21061e-08
8.33855e-06
1.25116e-08
8.33717e-06
1.3373e-08
8.33562e-06
1.38796e-08
8.3344e-06
1.44398e-08
8.33315e-06
1.48008e-08
8.33211e-06
1.51348e-08
8.33112e-06
1.53468e-08
8.33033e-06
1.55209e-08
8.32967e-06
1.54873e-08
8.32938e-06
1.52714e-08
8.32926e-06
1.49184e-08
8.32941e-06
1.45306e-08
8.32957e-06
1.4168e-08
8.32986e-06
1.37474e-08
8.33017e-06
1.32777e-08
8.33056e-06
1.27695e-08
8.33096e-06
1.21846e-08
8.33153e-06
1.153e-08
1.07232e-08
8.33202e-06
9.01963e-06
-2.77967e-08
9.02354e-06
1.23829e-08
9.01977e-06
-2.57592e-09
9.02157e-06
2.35038e-09
9.01948e-06
1.34947e-09
9.01916e-06
2.59825e-09
9.01949e-06
6.14991e-09
9.01889e-06
6.03267e-09
9.0184e-06
6.97837e-09
9.0174e-06
6.38139e-09
9.01682e-06
6.99086e-09
9.01574e-06
7.28493e-09
9.01494e-06
7.87289e-09
9.01391e-06
8.61454e-09
9.01305e-06
9.37854e-09
9.0119e-06
9.70619e-09
9.01091e-06
1.05499e-08
9.0098e-06
1.09944e-08
9.00873e-06
1.19876e-08
9.00745e-06
1.24508e-08
9.00611e-06
1.34452e-08
9.00457e-06
1.40526e-08
9.00316e-06
1.47784e-08
9.00183e-06
1.52118e-08
9.00064e-06
1.56332e-08
8.99952e-06
1.59146e-08
8.99857e-06
1.6085e-08
8.99778e-06
1.61361e-08
8.99738e-06
1.59243e-08
8.99718e-06
1.56901e-08
8.9971e-06
1.53486e-08
8.99706e-06
1.49646e-08
8.99704e-06
1.45463e-08
8.99705e-06
1.41619e-08
8.9971e-06
1.36892e-08
8.99723e-06
1.31549e-08
8.99738e-06
1.26174e-08
8.99751e-06
1.20539e-08
8.99758e-06
1.14613e-08
1.09254e-08
8.99738e-06
9.74012e-06
-2.38131e-08
9.74383e-06
8.67288e-09
9.74053e-06
7.20207e-10
9.74159e-06
1.29649e-09
9.74064e-06
2.29435e-09
9.73958e-06
3.6633e-09
9.7395e-06
6.22714e-09
9.73907e-06
6.46515e-09
9.7386e-06
7.44449e-09
9.73761e-06
7.3765e-09
9.7369e-06
7.69721e-09
9.73582e-06
8.36225e-09
9.73491e-06
8.78522e-09
9.73389e-06
9.63742e-09
9.7329e-06
1.03622e-08
9.73178e-06
1.08344e-08
9.73066e-06
1.16656e-08
9.72945e-06
1.22083e-08
9.72811e-06
1.33273e-08
9.72658e-06
1.39785e-08
9.72511e-06
1.49107e-08
9.72374e-06
1.54272e-08
9.72256e-06
1.59562e-08
9.72154e-06
1.62319e-08
9.72074e-06
1.64289e-08
9.72013e-06
1.6528e-08
9.71971e-06
1.65011e-08
9.7194e-06
1.64549e-08
9.71895e-06
1.63741e-08
9.71849e-06
1.6148e-08
9.71807e-06
1.57693e-08
9.71769e-06
1.53427e-08
9.71741e-06
1.48299e-08
9.7173e-06
1.4268e-08
9.71727e-06
1.37233e-08
9.71723e-06
1.31946e-08
9.71721e-06
1.26301e-08
9.7172e-06
1.20719e-08
9.71715e-06
1.15074e-08
1.09316e-08
9.71714e-06
1.05182e-05
-1.99689e-08
1.05216e-05
5.31502e-09
1.05198e-05
2.49662e-09
1.05193e-05
1.82413e-09
1.05186e-05
2.97495e-09
1.05175e-05
4.7384e-09
1.05171e-05
6.67703e-09
1.05166e-05
6.95946e-09
1.05162e-05
7.82837e-09
1.05153e-05
8.23719e-09
1.05145e-05
8.51947e-09
1.05135e-05
9.42712e-09
1.05124e-05
9.82092e-09
1.05114e-05
1.06719e-08
1.05103e-05
1.14677e-08
1.05091e-05
1.20123e-08
1.05078e-05
1.29394e-08
1.05064e-05
1.36245e-08
1.0505e-05
1.47915e-08
1.05035e-05
1.54455e-08
1.05022e-05
1.62099e-08
1.0501e-05
1.66401e-08
1.04999e-05
1.70716e-08
1.04987e-05
1.7362e-08
1.04976e-05
1.75235e-08
1.04966e-05
1.75991e-08
1.04956e-05
1.74319e-08
1.04949e-05
1.71531e-08
1.04947e-05
1.65928e-08
1.04947e-05
1.61437e-08
1.04948e-05
1.5636e-08
1.0495e-05
1.52056e-08
1.04951e-05
1.47328e-08
1.0495e-05
1.43047e-08
1.0495e-05
1.37974e-08
1.04949e-05
1.32603e-08
1.04949e-05
1.26697e-08
1.04949e-05
1.20879e-08
1.04949e-05
1.14806e-08
1.09047e-08
1.04949e-05
1.13585e-05
-1.6316e-08
1.13614e-05
2.39189e-09
1.13604e-05
3.57702e-09
1.13593e-05
2.91064e-09
1.13585e-05
3.73658e-09
1.13578e-05
5.4672e-09
1.13572e-05
7.22005e-09
1.13566e-05
7.61429e-09
1.1356e-05
8.42006e-09
1.13551e-05
9.09623e-09
1.13543e-05
9.3877e-09
1.13532e-05
1.04922e-08
1.13521e-05
1.09574e-08
1.1351e-05
1.17638e-08
1.13497e-05
1.26993e-08
1.13484e-05
1.33141e-08
1.1347e-05
1.4411e-08
1.13455e-05
1.51301e-08
1.1344e-05
1.62279e-08
1.13427e-05
1.67446e-08
1.13415e-05
1.74032e-08
1.13404e-05
1.77701e-08
1.13394e-05
1.80639e-08
1.13385e-05
1.82322e-08
1.13379e-05
1.81664e-08
1.13374e-05
1.8076e-08
1.13371e-05
1.77636e-08
1.13368e-05
1.74468e-08
1.13364e-05
1.69566e-08
1.1336e-05
1.65619e-08
1.13356e-05
1.60029e-08
1.13354e-05
1.54979e-08
1.13351e-05
1.49389e-08
1.1335e-05
1.44198e-08
1.1335e-05
1.3844e-08
1.1335e-05
1.32777e-08
1.1335e-05
1.26645e-08
1.1335e-05
1.2062e-08
1.1335e-05
1.14381e-08
1.08045e-08
1.13351e-05
1.2266e-05
-1.29456e-08
1.22684e-05
-9.58102e-12
1.22677e-05
4.2323e-09
1.22665e-05
4.08883e-09
1.22656e-05
4.65794e-09
1.22649e-05
6.15638e-09
1.22644e-05
7.78898e-09
1.22637e-05
8.30934e-09
1.22629e-05
9.1353e-09
1.2262e-05
1.00265e-08
1.22611e-05
1.03096e-08
1.226e-05
1.15496e-08
1.22588e-05
1.21748e-08
1.22576e-05
1.29563e-08
1.22563e-05
1.40635e-08
1.22548e-05
1.47699e-08
1.22533e-05
1.59618e-08
1.22518e-05
1.66101e-08
1.22505e-05
1.75364e-08
1.22493e-05
1.7952e-08
1.22482e-05
1.84333e-08
1.22473e-05
1.86746e-08
1.22466e-05
1.87831e-08
1.2246e-05
1.88624e-08
1.22454e-05
1.87098e-08
1.22449e-05
1.8653e-08
1.22443e-05
1.82706e-08
1.22439e-05
1.79025e-08
1.22435e-05
1.7354e-08
1.22432e-05
1.68654e-08
1.22429e-05
1.62749e-08
1.22427e-05
1.57064e-08
1.22425e-05
1.50991e-08
1.22424e-05
1.45252e-08
1.22424e-05
1.39013e-08
1.22424e-05
1.3293e-08
1.22424e-05
1.26533e-08
1.22424e-05
1.20295e-08
1.22425e-05
1.13943e-08
1.07643e-08
1.22425e-05
1.32459e-05
-9.91176e-09
1.32477e-05
-1.82434e-09
1.32474e-05
4.53734e-09
1.32463e-05
5.18018e-09
1.32453e-05
5.69478e-09
1.32445e-05
6.92869e-09
1.32438e-05
8.48509e-09
1.32431e-05
9.03002e-09
1.32424e-05
9.87035e-09
1.32414e-05
1.09981e-08
1.32404e-05
1.13078e-08
1.32393e-05
1.26358e-08
1.3238e-05
1.34972e-08
1.32367e-05
1.42458e-08
1.32352e-05
1.55553e-08
1.32336e-05
1.63344e-08
1.32321e-05
1.74605e-08
1.32308e-05
1.79443e-08
1.32296e-05
1.86937e-08
1.32285e-05
1.90706e-08
1.32275e-05
1.94458e-08
1.32265e-05
1.96949e-08
1.32256e-05
1.96997e-08
1.32247e-05
1.97193e-08
1.3224e-05
1.93988e-08
1.32236e-05
1.90493e-08
1.32234e-05
1.85169e-08
1.32232e-05
1.80743e-08
1.32231e-05
1.75061e-08
1.32229e-05
1.70137e-08
1.32228e-05
1.64307e-08
1.32226e-05
1.58747e-08
1.32225e-05
1.52262e-08
1.32224e-05
1.46006e-08
1.32224e-05
1.3936e-08
1.32224e-05
1.32878e-08
1.32224e-05
1.26225e-08
1.32224e-05
1.19758e-08
1.32225e-05
1.13285e-08
1.06809e-08
1.32226e-05
1.43041e-05
-7.31083e-09
1.43052e-05
-2.84275e-09
1.43052e-05
4.4518e-09
1.43043e-05
6.10352e-09
1.43033e-05
6.75883e-09
1.43024e-05
7.82946e-09
1.43016e-05
9.26551e-09
1.43007e-05
9.87575e-09
1.42999e-05
1.0672e-08
1.42989e-05
1.19805e-08
1.42979e-05
1.2353e-08
1.42968e-05
1.3735e-08
1.42953e-05
1.49768e-08
1.42939e-05
1.5709e-08
1.42923e-05
1.70974e-08
1.42908e-05
1.78607e-08
1.42895e-05
1.87907e-08
1.42882e-05
1.91969e-08
1.42871e-05
1.97686e-08
1.42861e-05
2.00996e-08
1.42853e-05
2.02573e-08
1.42846e-05
2.04004e-08
1.4284e-05
2.02366e-08
1.42836e-05
2.01639e-08
1.42832e-05
1.98214e-08
1.42826e-05
1.958e-08
1.42821e-05
1.9031e-08
1.42817e-05
1.85117e-08
1.42813e-05
1.78584e-08
1.42811e-05
1.72583e-08
1.42809e-05
1.65797e-08
1.42809e-05
1.59576e-08
1.42808e-05
1.5286e-08
1.42808e-05
1.46244e-08
1.42808e-05
1.39318e-08
1.42808e-05
1.32527e-08
1.42809e-05
1.25667e-08
1.4281e-05
1.18998e-08
1.4281e-05
1.12405e-08
1.05822e-08
1.42811e-05
1.54469e-05
-5.17748e-09
1.54464e-05
-2.39419e-09
1.54473e-05
3.5643e-09
1.54468e-05
6.5941e-09
1.54458e-05
7.81087e-09
1.54447e-05
8.87275e-09
1.54438e-05
1.02156e-08
1.54428e-05
1.08531e-08
1.54419e-05
1.15945e-08
1.54408e-05
1.3085e-08
1.54395e-05
1.36092e-08
1.54382e-05
1.50219e-08
1.54366e-05
1.65769e-08
1.54352e-05
1.71217e-08
1.54339e-05
1.83897e-08
1.54326e-05
1.91327e-08
1.54315e-05
1.99616e-08
1.54303e-05
2.03471e-08
1.54293e-05
2.07529e-08
1.54284e-05
2.10594e-08
1.54275e-05
2.11096e-08
1.54267e-05
2.12117e-08
1.5426e-05
2.09518e-08
1.54254e-05
2.07599e-08
1.54249e-05
2.02864e-08
1.54247e-05
1.98321e-08
1.54245e-05
1.92286e-08
1.54243e-05
1.8677e-08
1.54242e-05
1.80149e-08
1.5424e-05
1.73823e-08
1.54239e-05
1.66861e-08
1.54239e-05
1.60117e-08
1.54239e-05
1.53003e-08
1.54239e-05
1.46011e-08
1.54239e-05
1.38843e-08
1.5424e-05
1.31816e-08
1.54241e-05
1.24793e-08
1.54242e-05
1.17968e-08
1.54243e-05
1.11276e-08
1.04661e-08
1.54244e-05
1.66808e-05
-3.50823e-09
1.66798e-05
-1.43569e-09
1.66806e-05
2.82026e-09
1.66804e-05
6.8127e-09
1.66794e-05
8.76203e-09
1.66783e-05
9.94235e-09
1.66773e-05
1.12741e-08
1.66761e-05
1.20458e-08
1.66749e-05
1.28079e-08
1.66735e-05
1.44209e-08
1.66721e-05
1.5e-08
1.6671e-05
1.62008e-08
1.66696e-05
1.79201e-08
1.66683e-05
1.84307e-08
1.66671e-05
1.95587e-08
1.66659e-05
2.03331e-08
1.66649e-05
2.10461e-08
1.66638e-05
2.14377e-08
1.66628e-05
2.16859e-08
1.66619e-05
2.1957e-08
1.66612e-05
2.18891e-08
1.66605e-05
2.18608e-08
1.666e-05
2.14877e-08
1.66595e-05
2.11846e-08
1.66592e-05
2.06543e-08
1.66589e-05
2.01434e-08
1.66586e-05
1.94482e-08
1.66585e-05
1.88123e-08
1.66584e-05
1.8105e-08
1.66584e-05
1.74355e-08
1.66583e-05
1.67155e-08
1.66583e-05
1.60064e-08
1.66584e-05
1.52663e-08
1.66584e-05
1.4537e-08
1.66585e-05
1.3799e-08
1.66586e-05
1.30768e-08
1.66588e-05
1.23625e-08
1.66589e-05
1.16694e-08
1.6659e-05
1.0995e-08
1.03272e-08
1.66592e-05
1.8013e-05
-2.13745e-09
1.80121e-05
-5.19322e-10
1.8012e-05
2.89385e-09
1.80121e-05
6.73233e-09
1.80115e-05
9.39329e-09
1.80105e-05
1.09495e-08
1.80093e-05
1.24489e-08
1.8008e-05
1.33571e-08
1.80067e-05
1.4106e-08
1.80054e-05
1.5754e-08
1.80039e-05
1.64544e-08
1.80027e-05
1.73949e-08
1.80015e-05
1.91777e-08
1.80002e-05
1.97343e-08
1.7999e-05
2.06637e-08
1.79979e-05
2.14585e-08
1.79969e-05
2.20585e-08
1.79959e-05
2.24503e-08
1.7995e-05
2.25623e-08
1.79942e-05
2.276e-08
1.79935e-05
2.26022e-08
1.79929e-05
2.24877e-08
1.79923e-05
2.20222e-08
1.7992e-05
2.15562e-08
1.79918e-05
2.08753e-08
1.79916e-05
2.0256e-08
1.79916e-05
1.95315e-08
1.79915e-05
1.88602e-08
1.79915e-05
1.81305e-08
1.79915e-05
1.74368e-08
1.79915e-05
1.669e-08
1.79916e-05
1.59441e-08
1.79917e-05
1.51807e-08
1.79918e-05
1.44277e-08
1.79919e-05
1.36747e-08
1.7992e-05
1.2937e-08
1.79922e-05
1.22149e-08
1.79923e-05
1.15137e-08
1.79925e-05
1.08371e-08
1.01671e-08
1.79926e-05
1.94516e-05
-1.07667e-09
1.94507e-05
4.39067e-10
1.94501e-05
3.46408e-09
1.94501e-05
6.7082e-09
1.94498e-05
9.74466e-09
1.94489e-05
1.18109e-08
1.94478e-05
1.35778e-08
1.94464e-05
1.47084e-08
1.9445e-05
1.55025e-08
1.94437e-05
1.70809e-08
1.94422e-05
1.79407e-08
1.9441e-05
1.8633e-08
1.94398e-05
2.03477e-08
1.94385e-05
2.10107e-08
1.94375e-05
2.17242e-08
1.94364e-05
2.24985e-08
1.94355e-05
2.3e-08
1.94346e-05
2.33564e-08
1.94338e-05
2.33483e-08
1.94331e-05
2.3434e-08
1.94326e-05
2.31708e-08
1.94321e-05
2.29224e-08
1.94318e-05
2.23503e-08
1.94316e-05
2.17896e-08
1.94314e-05
2.1041e-08
1.94313e-05
2.03526e-08
1.94312e-05
1.95933e-08
1.94312e-05
1.88799e-08
1.94312e-05
1.81276e-08
1.94313e-05
1.73821e-08
1.94314e-05
1.66028e-08
1.94315e-05
1.58293e-08
1.94316e-05
1.50501e-08
1.94318e-05
1.42765e-08
1.94319e-05
1.35142e-08
1.94321e-05
1.27643e-08
1.94323e-05
1.20389e-08
1.94324e-05
1.13322e-08
1.94326e-05
1.06569e-08
9.98696e-09
1.94328e-05
2.1005e-05
-2.77581e-10
2.10039e-05
1.49439e-09
2.10033e-05
4.07357e-09
2.1003e-05
7.09463e-09
2.10027e-05
1.00265e-08
2.10021e-05
1.24224e-08
2.10011e-05
1.45627e-08
2.09998e-05
1.59936e-08
2.09984e-05
1.68859e-08
2.09971e-05
1.84276e-08
2.09956e-05
1.94375e-08
2.09942e-05
1.99546e-08
2.09931e-05
2.14466e-08
2.09919e-05
2.22311e-08
2.09909e-05
2.274e-08
2.099e-05
2.34224e-08
2.09891e-05
2.38317e-08
2.09884e-05
2.41302e-08
2.09877e-05
2.40141e-08
2.09872e-05
2.39716e-08
2.09867e-05
2.35956e-08
2.09864e-05
2.32275e-08
2.09862e-05
2.25676e-08
2.09861e-05
2.19053e-08
2.0986e-05
2.11045e-08
2.0986e-05
2.03652e-08
2.0986e-05
1.95984e-08
2.09861e-05
1.88475e-08
2.09861e-05
1.80634e-08
2.09862e-05
1.72677e-08
2.09864e-05
1.64699e-08
2.09865e-05
1.56678e-08
2.09867e-05
1.48751e-08
2.09869e-05
1.40837e-08
2.09871e-05
1.33161e-08
2.09873e-05
1.25579e-08
2.09875e-05
1.18327e-08
2.09877e-05
1.11239e-08
2.09879e-05
1.04526e-08
9.78483e-09
2.09881e-05
2.26823e-05
3.26091e-10
2.26813e-05
2.50431e-09
2.26806e-05
4.82664e-09
2.26799e-05
7.70383e-09
2.26795e-05
1.04693e-08
2.2679e-05
1.28963e-08
2.26783e-05
1.53081e-08
2.26772e-05
1.71154e-08
2.26758e-05
1.82075e-08
2.26745e-05
1.97273e-08
2.26731e-05
2.0892e-08
2.26717e-05
2.13479e-08
2.26706e-05
2.25042e-08
2.26695e-05
2.33444e-08
2.26686e-05
2.37065e-08
2.26678e-05
2.42225e-08
2.26671e-05
2.4518e-08
2.26665e-05
2.47468e-08
2.26659e-05
2.45357e-08
2.26655e-05
2.43548e-08
2.26653e-05
2.38617e-08
2.26651e-05
2.33736e-08
2.26651e-05
2.26438e-08
2.26651e-05
2.19152e-08
2.26651e-05
2.10965e-08
2.26651e-05
2.03255e-08
2.26652e-05
1.95368e-08
2.26653e-05
1.8744e-08
2.26654e-05
1.79305e-08
2.26656e-05
1.71035e-08
2.26657e-05
1.6287e-08
2.2666e-05
1.54589e-08
2.26662e-05
1.46554e-08
2.26664e-05
1.38507e-08
2.26666e-05
1.30809e-08
2.26669e-05
1.23187e-08
2.26671e-05
1.15966e-08
2.26674e-05
1.08892e-08
2.26676e-05
1.02236e-08
9.56176e-09
2.26678e-05
2.44935e-05
8.1037e-10
2.44926e-05
3.38065e-09
2.44917e-05
5.72513e-09
2.44909e-05
8.45173e-09
2.44902e-05
1.11897e-08
2.44897e-05
1.34104e-08
2.44891e-05
1.59152e-08
2.44883e-05
1.79549e-08
2.44871e-05
1.93166e-08
2.4486e-05
2.09259e-08
2.44846e-05
2.22184e-08
2.44832e-05
2.27357e-08
2.44822e-05
2.35392e-08
2.44813e-05
2.42924e-08
2.44804e-05
2.45726e-08
2.44797e-05
2.49016e-08
2.44792e-05
2.50354e-08
2.44788e-05
2.51544e-08
2.44785e-05
2.48687e-08
2.44782e-05
2.45579e-08
2.44782e-05
2.39588e-08
2.44782e-05
2.33668e-08
2.44782e-05
2.26121e-08
2.44782e-05
2.18673e-08
2.44783e-05
2.10453e-08
2.44784e-05
2.02234e-08
2.44785e-05
1.93996e-08
2.44787e-05
1.85629e-08
2.44789e-05
1.77346e-08
2.44791e-05
1.68807e-08
2.44794e-05
1.60465e-08
2.44796e-05
1.51992e-08
2.44799e-05
1.43846e-08
2.44802e-05
1.35789e-08
2.44804e-05
1.28052e-08
2.44807e-05
1.20438e-08
2.4481e-05
1.13272e-08
2.44812e-05
1.06335e-08
2.44815e-05
9.97734e-09
9.31167e-09
2.44817e-05
2.64492e-05
1.18836e-09
2.64484e-05
4.15181e-09
2.64475e-05
6.65231e-09
2.64466e-05
9.32934e-09
2.64457e-05
1.21208e-08
2.64448e-05
1.42741e-08
2.64441e-05
1.6669e-08
2.64433e-05
1.87643e-08
2.64424e-05
2.01639e-08
2.64415e-05
2.18203e-08
2.64406e-05
2.31454e-08
2.64395e-05
2.38492e-08
2.64385e-05
2.44841e-08
2.64378e-05
2.50391e-08
2.64371e-05
2.52731e-08
2.64366e-05
2.54156e-08
2.64362e-05
2.5364e-08
2.64361e-05
2.53295e-08
2.6436e-05
2.49619e-08
2.6436e-05
2.45628e-08
2.6436e-05
2.39427e-08
2.6436e-05
2.32987e-08
2.64361e-05
2.25302e-08
2.64363e-05
2.17243e-08
2.64364e-05
2.08828e-08
2.64366e-05
2.00251e-08
2.64369e-05
1.91777e-08
2.64371e-05
1.83061e-08
2.64374e-05
1.74563e-08
2.64377e-05
1.65823e-08
2.6438e-05
1.57396e-08
2.64383e-05
1.48849e-08
2.64386e-05
1.40712e-08
2.64389e-05
1.32593e-08
2.64393e-05
1.24928e-08
2.64396e-05
1.17378e-08
2.64399e-05
1.10283e-08
2.64402e-05
1.03369e-08
2.64404e-05
9.68907e-09
9.05017e-09
2.64407e-05
2.8561e-05
1.48919e-09
2.85603e-05
4.84805e-09
2.85594e-05
7.53637e-09
2.85585e-05
1.02419e-08
2.85575e-05
1.31064e-08
2.85566e-05
1.52467e-08
2.85557e-05
1.75605e-08
2.85547e-05
1.97104e-08
2.85539e-05
2.09765e-08
2.85532e-05
2.2567e-08
2.85525e-05
2.38022e-08
2.85518e-05
2.45157e-08
2.85512e-05
2.51679e-08
2.85506e-05
2.55698e-08
2.85502e-05
2.57311e-08
2.85498e-05
2.5785e-08
2.85496e-05
2.55885e-08
2.85495e-05
2.5405e-08
2.85495e-05
2.49301e-08
2.85497e-05
2.44351e-08
2.85499e-05
2.37549e-08
2.85501e-05
2.30463e-08
2.85504e-05
2.22505e-08
2.85507e-05
2.14238e-08
2.8551e-05
2.05804e-08
2.85513e-05
1.97068e-08
2.85516e-05
1.88472e-08
2.8552e-05
1.79562e-08
2.85523e-05
1.70931e-08
2.85527e-05
1.62086e-08
2.85531e-05
1.5362e-08
2.85535e-05
1.45086e-08
2.85538e-05
1.36994e-08
2.85542e-05
1.28962e-08
2.85546e-05
1.21392e-08
2.85549e-05
1.13972e-08
2.85552e-05
1.07001e-08
2.85555e-05
1.00234e-08
2.85558e-05
9.38932e-09
8.79323e-09
2.85561e-05
3.08414e-05
1.73655e-09
3.08409e-05
5.42382e-09
3.084e-05
8.40359e-09
3.08391e-05
1.11461e-08
3.08381e-05
1.40731e-08
3.08371e-05
1.62345e-08
3.08363e-05
1.83583e-08
3.08355e-05
2.05774e-08
3.08347e-05
2.17768e-08
3.0834e-05
2.32023e-08
3.08334e-05
2.43896e-08
3.0833e-05
2.49405e-08
3.08326e-05
2.55647e-08
3.08323e-05
2.58658e-08
3.08322e-05
2.58828e-08
3.08321e-05
2.5862e-08
3.08321e-05
2.55637e-08
3.08322e-05
2.52788e-08
3.08325e-05
2.47158e-08
3.08328e-05
2.41398e-08
3.08331e-05
2.34258e-08
3.08334e-05
2.26835e-08
3.08338e-05
2.18749e-08
3.08342e-05
2.10212e-08
3.08346e-05
2.01645e-08
3.08351e-05
1.9274e-08
3.08355e-05
1.84062e-08
3.0836e-05
1.75059e-08
3.08364e-05
1.66371e-08
3.08369e-05
1.57498e-08
3.08373e-05
1.49044e-08
3.08378e-05
1.40582e-08
3.08382e-05
1.32587e-08
3.08387e-05
1.24704e-08
3.08391e-05
1.17291e-08
3.08394e-05
1.10182e-08
3.08398e-05
1.0339e-08
3.08401e-05
9.68072e-09
3.08405e-05
9.06319e-09
8.48235e-09
3.08408e-05
3.33039e-05
1.90266e-09
3.33034e-05
5.96391e-09
3.33026e-05
9.17351e-09
3.33017e-05
1.20357e-08
3.33009e-05
1.4925e-08
3.32999e-05
1.71905e-08
3.32992e-05
1.9058e-08
3.32985e-05
2.12862e-08
3.32978e-05
2.24941e-08
3.32973e-05
2.36902e-08
3.32968e-05
2.4889e-08
3.32964e-05
2.53162e-08
3.32962e-05
2.57799e-08
3.3296e-05
2.60481e-08
3.3296e-05
2.59087e-08
3.32961e-05
2.57598e-08
3.32964e-05
2.53289e-08
3.32967e-05
2.49302e-08
3.32971e-05
2.42779e-08
3.32977e-05
2.35973e-08
3.32983e-05
2.28272e-08
3.32989e-05
2.20492e-08
3.32996e-05
2.12409e-08
3.33002e-05
2.04215e-08
3.33007e-05
1.96147e-08
3.33012e-05
1.87366e-08
3.33018e-05
1.78665e-08
3.33023e-05
1.69631e-08
3.33029e-05
1.60957e-08
3.33034e-05
1.52035e-08
3.3304e-05
1.43522e-08
3.33045e-05
1.35223e-08
3.3305e-05
1.27421e-08
3.33055e-05
1.19778e-08
3.3306e-05
1.12593e-08
3.33064e-05
1.05616e-08
3.33069e-05
9.90597e-09
3.33073e-05
9.27409e-09
3.33077e-05
8.68114e-09
8.10418e-09
3.3308e-05
3.5963e-05
2.05811e-09
3.59625e-05
6.44737e-09
3.59618e-05
9.9089e-09
3.59609e-05
1.2867e-08
3.59602e-05
1.56307e-08
3.59594e-05
1.79934e-08
3.59588e-05
1.96879e-08
3.59583e-05
2.17841e-08
3.59577e-05
2.30853e-08
3.59574e-05
2.40062e-08
3.59572e-05
2.50925e-08
3.5957e-05
2.5473e-08
3.59571e-05
2.56629e-08
3.59573e-05
2.58393e-08
3.59577e-05
2.55723e-08
3.59582e-05
2.5278e-08
3.59588e-05
2.47273e-08
3.59595e-05
2.42248e-08
3.59602e-05
2.35658e-08
3.59609e-05
2.28735e-08
3.59616e-05
2.21649e-08
3.59621e-05
2.14748e-08
3.59627e-05
2.0717e-08
3.59632e-05
1.9874e-08
3.59638e-05
1.90085e-08
3.59645e-05
1.8048e-08
3.59652e-05
1.71385e-08
3.5966e-05
1.62405e-08
3.59666e-05
1.54259e-08
3.59672e-05
1.45981e-08
3.59678e-05
1.38028e-08
3.59683e-05
1.30126e-08
3.59688e-05
1.22647e-08
3.59692e-05
1.15326e-08
3.59696e-05
1.08415e-08
3.597e-05
1.01719e-08
3.59704e-05
9.54048e-09
3.59707e-05
8.93302e-09
3.59711e-05
8.36086e-09
7.82243e-09
3.59713e-05
3.88347e-05
1.80937e-09
3.88333e-05
7.82689e-09
3.88333e-05
9.98166e-09
3.88322e-05
1.39402e-08
3.88322e-05
1.56198e-08
3.88313e-05
1.88971e-08
3.88311e-05
1.98721e-08
3.88305e-05
2.2424e-08
3.88302e-05
2.33134e-08
3.88297e-05
2.45699e-08
3.88297e-05
2.50646e-08
3.88293e-05
2.58461e-08
3.88294e-05
2.55828e-08
3.88293e-05
2.59098e-08
3.88295e-05
2.53791e-08
3.88296e-05
2.51826e-08
3.883e-05
2.43836e-08
3.88303e-05
2.38656e-08
3.88309e-05
2.29656e-08