/*--------------------------------*- C++ -*----------------------------------*\
| =========                 |                                                 |
| \\      /  F ield         | OpenFOAM: The Open Source CFD Toolbox           |
|  \\    /   O peration     | Version:  2312                                  |
|   \\  /    A nd           | Website:  www.openfoam.com                      |
|    \\/     M anipulation  |                                                 |
\*---------------------------------------------------------------------------*/
FoamFile
{
    version     2.0;
    format      ascii;
    arch        "LSB;label=32;scalar=64";
    class       volVectorField;
    location    "0.65";
    object      U;
}
// * * * * * * * * * * * * * * * * * * * * * * * * * * * * * * * * * * * * * //

dimensions      [0 1 -1 0 0 0 0];

internalField   nonuniform List<vector> 
5600
(
(0.971786 -0.000841335 0)
(1.02743 0.000755389 0)
(0.974256 -0.000682209 0)
(1.02493 0.000552046 0)
(0.977003 -0.000565391 0)
(1.0226 0.00048291 0)
(0.979275 -0.000396955 0)
(1.02019 0.00043636 0)
(0.981291 -0.000283091 0)
(1.0179 0.000314893 0)
(0.983201 -0.000238724 0)
(1.0158 0.000226268 0)
(0.984891 -0.000203474 0)
(1.01385 0.00018306 0)
(0.986413 -0.000135092 0)
(1.012 0.000177527 0)
(0.987705 -4.91529e-05 0)
(1.01026 0.000215168 0)
(0.988808 3.1099e-05 0)
(1.00863 0.000254966 0)
(0.989716 8.3174e-05 0)
(1.00709 0.000275869 0)
(0.990468 0.000120917 0)
(1.00567 0.000287417 0)
(0.991065 0.000158388 0)
(1.00434 0.000303233 0)
(0.991515 0.000198614 0)
(1.00309 0.00032501 0)
(0.991826 0.000240756 0)
(1.0019 0.000353189 0)
(0.991995 0.000293707 0)
(1.00074 0.00041517 0)
(0.992013 0.000417442 0)
(0.999606 0.000604853 0)
(0.99192 0.000705699 0)
(0.998542 0.000962396 0)
(0.991787 0.0011385 0)
(0.997563 0.00148576 0)
(0.991678 0.00183679 0)
(0.997027 0.00240811 0)
(0.987386 -0.000860931 0)
(1.01106 0.000750569 0)
(0.989763 -0.000674699 0)
(1.00904 0.00052698 0)
(0.992066 -0.000554955 0)
(1.00744 0.000464458 0)
(0.99369 -0.000360415 0)
(1.00577 0.000420118 0)
(0.994933 -0.00023569 0)
(1.00438 0.000290967 0)
(0.995957 -0.000184354 0)
(1.00321 0.00020299 0)
(0.996689 -0.000144065 0)
(1.0022 0.000167909 0)
(0.99721 -7.16191e-05 0)
(1.00134 0.000178046 0)
(0.997484 2.21619e-05 0)
(1.00059 0.000233814 0)
(0.997605 0.000112413 0)
(0.999883 0.000289799 0)
(0.997598 0.000174811 0)
(0.999237 0.000328056 0)
(0.99751 0.000223176 0)
(0.998653 0.000360655 0)
(0.997337 0.000277774 0)
(0.998095 0.000403446 0)
(0.997081 0.00034265 0)
(0.997546 0.000459611 0)
(0.996748 0.000422513 0)
(0.996991 0.00054179 0)
(0.99635 0.000543738 0)
(0.996435 0.000696042 0)
(0.995926 0.000780536 0)
(0.995908 0.00102374 0)
(0.995502 0.00122284 0)
(0.995415 0.00155419 0)
(0.995133 0.00184408 0)
(0.995105 0.00228644 0)
(0.995115 0.00276235 0)
(0.995471 0.00342855 0)
(0.996936 -0.000774314 0)
(1.00204 0.000640027 0)
(0.997649 -0.0005722 0)
(1.00128 0.000417295 0)
(0.998326 -0.000461438 0)
(1.00093 0.000361344 0)
(0.99868 -0.000254462 0)
(1.00035 0.000320496 0)
(0.998851 -0.000139473 0)
(0.99995 0.000198448 0)
(0.998967 -9.00781e-05 0)
(0.999619 0.000119949 0)
(0.998933 -5.0895e-05 0)
(0.999279 9.84301e-05 0)
(0.998805 1.09701e-05 0)
(0.998966 0.000125164 0)
(0.998574 9.45406e-05 0)
(0.998652 0.000191919 0)
(0.998309 0.000176469 0)
(0.998304 0.000254796 0)
(0.998011 0.000242335 0)
(0.997947 0.000302687 0)
(0.997707 0.00029459 0)
(0.997594 0.000346871 0)
(0.997374 0.000348524 0)
(0.997216 0.00040233 0)
(0.996997 0.000416959 0)
(0.996805 0.000477386 0)
(0.99658 0.000511637 0)
(0.996366 0.000595394 0)
(0.996135 0.000679997 0)
(0.995914 0.000824171 0)
(0.995695 0.000973295 0)
(0.995483 0.00116042 0)
(0.995272 0.00134822 0)
(0.995078 0.00157896 0)
(0.994929 0.00182973 0)
(0.994859 0.00213011 0)
(0.994935 0.00245064 0)
(0.99526 0.0027976 0)
(0.99954 -0.000767314 0)
(0.99988 0.00062948 0)
(0.999477 -0.000546352 0)
(0.999695 0.000405074 0)
(0.99945 -0.000447486 0)
(0.999676 0.000348434 0)
(0.999413 -0.000218961 0)
(0.999444 0.000313261 0)
(0.999315 -0.000105449 0)
(0.999271 0.000189301 0)
(0.999202 -5.64538e-05 0)
(0.999099 0.000118698 0)
(0.998996 -1.28429e-05 0)
(0.998869 0.000110984 0)
(0.998729 4.99404e-05 0)
(0.998599 0.000149249 0)
(0.998455 0.000139023 0)
(0.998331 0.000228267 0)
(0.998172 0.000232018 0)
(0.998028 0.000301716 0)
(0.997857 0.00030282 0)
(0.997704 0.000359425 0)
(0.997538 0.000365089 0)
(0.99737 0.000418661 0)
(0.997196 0.000435995 0)
(0.997002 0.00049744 0)
(0.996812 0.000532825 0)
(0.996597 0.00060975 0)
(0.996396 0.000673592 0)
(0.99618 0.00078132 0)
(0.995989 0.000894813 0)
(0.995783 0.00105995 0)
(0.995595 0.00123299 0)
(0.995395 0.0014359 0)
(0.995226 0.00164341 0)
(0.995077 0.0018888 0)
(0.995001 0.00215664 0)
(0.995006 0.00246529 0)
(0.995169 0.00279276 0)
(0.995561 0.00314024 0)
(0.999952 -0.00069988 0)
(0.999582 0.000552767 0)
(0.999734 -0.000465254 0)
(0.999559 0.000335272 0)
(0.999577 -0.000370205 0)
(0.999504 0.000272045 0)
(0.999465 -0.000137349 0)
(0.999372 0.00023964 0)
(0.999376 -3.07029e-05 0)
(0.99923 0.00013105 0)
(0.999207 1.32469e-05 0)
(0.999047 7.76287e-05 0)
(0.99896 4.85535e-05 0)
(0.998832 9.86807e-05 0)
(0.998662 8.53151e-05 0)
(0.998534 0.000150498 0)
(0.998415 0.000169521 0)
(0.998285 0.000238239 0)
(0.998161 0.00027058 0)
(0.998012 0.000321066 0)
(0.997859 0.000349171 0)
(0.997702 0.000390468 0)
(0.997541 0.000419572 0)
(0.997366 0.000464521 0)
(0.997196 0.000503305 0)
(0.996994 0.000564232 0)
(0.996809 0.000622259 0)
(0.996592 0.000708431 0)
(0.996403 0.000803698 0)
(0.996189 0.000935025 0)
(0.996014 0.0010792 0)
(0.99582 0.00124407 0)
(0.995654 0.00141353 0)
(0.99547 0.00159896 0)
(0.995329 0.0017941 0)
(0.995207 0.00200674 0)
(0.995163 0.00222994 0)
(0.995191 0.00246366 0)
(0.995368 0.00269801 0)
(0.995755 0.00292749 0)
(1 -0.00068368 0)
(0.999557 0.000532062 0)
(0.999757 -0.000433322 0)
(0.999579 0.000316404 0)
(0.999605 -0.000335602 0)
(0.999482 0.000249779 0)
(0.999455 -9.70494e-05 0)
(0.999374 0.000218619 0)
(0.999395 8.35892e-06 0)
(0.999257 0.000121642 0)
(0.999216 5.10393e-05 0)
(0.999055 8.13587e-05 0)
(0.998947 8.02274e-05 0)
(0.998837 0.000123249 0)
(0.998647 0.000123073 0)
(0.998517 0.000172854 0)
(0.998416 0.000210039 0)
(0.998282 0.000268467 0)
(0.99818 0.000316345 0)
(0.998037 0.000363486 0)
(0.997896 0.000406227 0)
(0.997743 0.000446128 0)
(0.997588 0.000491092 0)
(0.997412 0.000537617 0)
(0.997248 0.000595426 0)
(0.997046 0.00066575 0)
(0.996868 0.000746978 0)
(0.996656 0.00084904 0)
(0.996483 0.000969911 0)
(0.996288 0.00111799 0)
(0.996127 0.00128231 0)
(0.99594 0.0014521 0)
(0.995784 0.00162368 0)
(0.995616 0.0018 0)
(0.995495 0.00198537 0)
(0.995396 0.00217675 0)
(0.995375 0.00237377 0)
(0.995427 0.00256972 0)
(0.995627 0.0027641 0)
(0.996036 0.00295169 0)
(1.00001 -0.000619763 0)
(0.999562 0.00046085 0)
(0.999757 -0.000357457 0)
(0.999596 0.000252261 0)
(0.999617 -0.000259471 0)
(0.999486 0.000185406 0)
(0.99946 -2.51351e-05 0)
(0.999381 0.000155202 0)
(0.99939 6.83561e-05 0)
(0.999272 9.15405e-05 0)
(0.999222 9.73721e-05 0)
(0.999069 8.26361e-05 0)
(0.998948 0.000102089 0)
(0.998848 0.000141448 0)
(0.998669 0.000161027 0)
(0.998524 0.000190137 0)
(0.998429 0.000240519 0)
(0.998289 0.00029082 0)
(0.998191 0.000350754 0)
(0.998052 0.000397163 0)
(0.997918 0.000453441 0)
(0.997772 0.000494533 0)
(0.997625 0.000554438 0)
(0.997455 0.000605761 0)
(0.997298 0.000681031 0)
(0.997106 0.000765979 0)
(0.99694 0.000870283 0)
(0.996747 0.000995101 0)
(0.99659 0.00114171 0)
(0.996414 0.00129981 0)
(0.996263 0.00146192 0)
(0.99609 0.00162457 0)
(0.995944 0.00179082 0)
(0.995795 0.00195972 0)
(0.995689 0.00213342 0)
(0.995607 0.00230701 0)
(0.995596 0.00247834 0)
(0.995656 0.00264057 0)
(0.995855 0.00279005 0)
(0.996266 0.00292235 0)
(1.00001 -0.000591544 0)
(0.999575 0.000426538 0)
(0.999756 -0.00031376 0)
(0.999613 0.00022137 0)
(0.999621 -0.0002116 0)
(0.999494 0.000156457 0)
(0.999472 1.92316e-05 0)
(0.999403 0.00013287 0)
(0.999381 0.000102484 0)
(0.999279 8.68917e-05 0)
(0.999224 0.000121152 0)
(0.999077 9.98755e-05 0)
(0.998957 0.000134182 0)
(0.998857 0.000167397 0)
(0.998707 0.000204455 0)
(0.99855 0.000217015 0)
(0.99845 0.000280596 0)
(0.998309 0.000323105 0)
(0.998203 0.000394963 0)
(0.998068 0.000438027 0)
(0.997934 0.000509753 0)
(0.997794 0.000549655 0)
(0.997652 0.000627101 0)
(0.997493 0.000681015 0)
(0.997342 0.000775623 0)
(0.997169 0.000874116 0)
(0.997018 0.00100979 0)
(0.996852 0.00115451 0)
(0.996711 0.00131918 0)
(0.99655 0.0014775 0)
(0.996409 0.00164363 0)
(0.996251 0.00180256 0)
(0.99612 0.00197037 0)
(0.995988 0.00212864 0)
(0.995896 0.00228737 0)
(0.995826 0.00242744 0)
(0.995818 0.0025569 0)
(0.995875 0.00266131 0)
(0.99606 0.00275178 0)
(0.996445 0.00282639 0)
(1.00001 -0.000529468 0)
(0.99959 0.000358555 0)
(0.999755 -0.000240991 0)
(0.999627 0.000164463 0)
(0.999625 -0.000142629 0)
(0.999503 0.000103265 0)
(0.999484 7.78455e-05 0)
(0.999429 9.44858e-05 0)
(0.999379 0.000143885 0)
(0.999281 8.77528e-05 0)
(0.999227 0.000143597 0)
(0.999081 0.000109356 0)
(0.998967 0.000172452 0)
(0.998867 0.000180097 0)
(0.998743 0.000249437 0)
(0.998585 0.000236118 0)
(0.998476 0.000328928 0)
(0.998339 0.000346695 0)
(0.998225 0.000449788 0)
(0.998093 0.000470298 0)
(0.997957 0.000576055 0)
(0.997822 0.000598897 0)
(0.997683 0.000711581 0)
(0.997536 0.000759178 0)
(0.997395 0.000892113 0)
(0.997246 0.000993917 0)
(0.997115 0.00116032 0)
(0.996966 0.00129478 0)
(0.996837 0.00146854 0)
(0.996689 0.00161042 0)
(0.996563 0.00179284 0)
(0.996422 0.00195491 0)
(0.996302 0.00215802 0)
(0.996174 0.00233821 0)
(0.996074 0.00253888 0)
(0.995986 0.00269673 0)
(0.995951 0.00285226 0)
(0.99598 0.00294543 0)
(0.996154 0.0029858 0)
(0.996581 0.00286746 0)
(1.00002 -0.000491482 0)
(0.999603 0.000314339 0)
(0.99976 -0.000189182 0)
(0.999637 0.000128153 0)
(0.999636 -8.82846e-05 0)
(0.999514 7.56785e-05 0)
(0.999496 0.000115253 0)
(0.999448 8.41223e-05 0)
(0.999391 0.000155007 0)
(0.999283 0.0001012 0)
(0.999238 0.000163532 0)
(0.999086 0.000133836 0)
(0.998984 0.000202553 0)
(0.998877 0.000208006 0)
(0.998773 0.00028599 0)
(0.998616 0.000274995 0)
(0.998505 0.000371137 0)
(0.99837 0.000389355 0)
(0.998256 0.000498296 0)
(0.998125 0.000520701 0)
(0.997993 0.000635519 0)
(0.997861 0.000666608 0)
(0.997734 0.000793411 0)
(0.997598 0.000865462 0)
(0.997475 0.00101961 0)
(0.997338 0.00113224 0)
(0.997219 0.00129351 0)
(0.997079 0.00141726 0)
(0.996967 0.00158362 0)
(0.996839 0.00172267 0)
(0.996745 0.00190295 0)
(0.996639 0.00205871 0)
(0.996562 0.00224642 0)
(0.996466 0.00240197 0)
(0.996384 0.00257445 0)
(0.996293 0.00271136 0)
(0.996224 0.00285341 0)
(0.996124 0.00294027 0)
(0.995946 0.00297622 0)
(0.995528 0.00285462 0)
(1.00002 -0.000431135 0)
(0.999625 0.000249631 0)
(0.99976 -0.000119869 0)
(0.99965 8.16491e-05 0)
(0.999645 -3.48394e-05 0)
(0.999534 4.48073e-05 0)
(0.999507 0.000134772 0)
(0.999461 0.000111064 0)
(0.999402 0.000149056 0)
(0.999292 0.000125924 0)
(0.99925 0.000170089 0)
(0.999097 0.000171034 0)
(0.999001 0.000216751 0)
(0.998895 0.000248594 0)
(0.998796 0.000306024 0)
(0.998646 0.000326794 0)
(0.998535 0.000400819 0)
(0.998406 0.000445508 0)
(0.998293 0.000536896 0)
(0.998166 0.000588521 0)
(0.998038 0.000690547 0)
(0.997914 0.000759914 0)
(0.997803 0.000881564 0)
(0.997682 0.000992213 0)
(0.99757 0.00113188 0)
(0.997438 0.00125747 0)
(0.997329 0.00139481 0)
(0.997202 0.00152808 0)
(0.997108 0.00167343 0)
(0.996996 0.00181614 0)
(0.996913 0.00196264 0)
(0.996807 0.0020925 0)
(0.996717 0.0022121 0)
(0.996603 0.00231291 0)
(0.996511 0.00241236 0)
(0.996414 0.00250531 0)
(0.996333 0.00259523 0)
(0.996214 0.00266724 0)
(0.996027 0.00272417 0)
(0.995647 0.0027658 0)
(1.00002 -0.000386468 0)
(0.999652 0.000201038 0)
(0.99976 -6.87627e-05 0)
(0.999666 5.25518e-05 0)
(0.999652 1.12993e-05 0)
(0.999555 4.07962e-05 0)
(0.999525 0.000127432 0)
(0.999476 0.000129593 0)
(0.999413 0.000161914 0)
(0.999305 0.000152028 0)
(0.999265 0.000186344 0)
(0.999113 0.000203083 0)
(0.999022 0.000242284 0)
(0.998918 0.000284493 0)
(0.998821 0.000337906 0)
(0.998676 0.000374834 0)
(0.998568 0.000443173 0)
(0.998445 0.000498458 0)
(0.998335 0.00058822 0)
(0.998215 0.000655461 0)
(0.998096 0.000761362 0)
(0.997983 0.000858335 0)
(0.997887 0.000984545 0)
(0.997775 0.00110258 0)
(0.99767 0.00123131 0)
(0.997546 0.00136028 0)
(0.997448 0.00149472 0)
(0.997332 0.00163171 0)
(0.997248 0.00176166 0)
(0.997143 0.0018818 0)
(0.997059 0.00198905 0)
(0.996947 0.00208823 0)
(0.996858 0.00218393 0)
(0.99676 0.00228379 0)
(0.99669 0.00238897 0)
(0.996608 0.00249542 0)
(0.996527 0.00259529 0)
(0.996389 0.00268264 0)
(0.996168 0.00275313 0)
(0.995746 0.00280781 0)
(1.00002 -0.000329469 0)
(0.999681 0.000142784 0)
(0.999762 -5.82869e-06 0)
(0.999682 2.16135e-05 0)
(0.999665 3.63142e-05 0)
(0.999575 5.9528e-05 0)
(0.999542 0.000124578 0)
(0.99949 0.000136795 0)
(0.999428 0.000172024 0)
(0.999319 0.00017859 0)
(0.999283 0.000203702 0)
(0.999132 0.000235671 0)
(0.999044 0.000268965 0)
(0.998944 0.00031952 0)
(0.998848 0.000372496 0)
(0.998709 0.000419482 0)
(0.998606 0.000489883 0)
(0.998491 0.000552086 0)
(0.998387 0.000649398 0)
(0.998275 0.000732134 0)
(0.998169 0.000848884 0)
(0.998066 0.000957884 0)
(0.997977 0.00108029 0)
(0.997871 0.00119213 0)
(0.997779 0.00130992 0)
(0.997667 0.00142836 0)
(0.997581 0.00154716 0)
(0.997468 0.00166947 0)
(0.997376 0.0017866 0)
(0.997259 0.00190322 0)
(0.997172 0.00201061 0)
(0.997072 0.00211586 0)
(0.997004 0.00221593 0)
(0.996926 0.00231748 0)
(0.996869 0.00241455 0)
(0.996789 0.0025091 0)
(0.9967 0.002594 0)
(0.99655 0.00267196 0)
(0.996318 0.00273919 0)
(0.995894 0.00280176 0)
(1.00002 -0.000281831 0)
(0.999715 9.53703e-05 0)
(0.999766 2.91278e-05 0)
(0.999695 2.1312e-05 0)
(0.999682 4.41934e-05 0)
(0.999594 8.04013e-05 0)
(0.999562 0.000129927 0)
(0.99951 0.000147777 0)
(0.999446 0.000181924 0)
(0.999336 0.000202302 0)
(0.999303 0.000225993 0)
(0.999155 0.000268372 0)
(0.999072 0.000301952 0)
(0.998976 0.000356777 0)
(0.998881 0.000412787 0)
(0.998747 0.000467907 0)
(0.998648 0.000542418 0)
(0.998544 0.000614085 0)
(0.998449 0.000720693 0)
(0.998348 0.000817418 0)
(0.998251 0.000936427 0)
(0.998153 0.00104408 0)
(0.998069 0.00115958 0)
(0.997967 0.00127086 0)
(0.99788 0.0013853 0)
(0.997772 0.00150239 0)
(0.997693 0.00161169 0)
(0.997594 0.00172278 0)
(0.997524 0.00182361 0)
(0.997428 0.0019306 0)
(0.997352 0.00203043 0)
(0.997251 0.0021362 0)
(0.997178 0.00223404 0)
(0.997098 0.00233491 0)
(0.997041 0.00242614 0)
(0.996963 0.00251705 0)
(0.996875 0.00259719 0)
(0.996725 0.0026759 0)
(0.996495 0.00274493 0)
(0.996074 0.00281313 0)
(1.00002 -0.000232058 0)
(0.999749 5.18299e-05 0)
(0.999775 4.69225e-05 0)
(0.99971 3.79998e-05 0)
(0.999701 5.97605e-05 0)
(0.999617 9.90499e-05 0)
(0.999581 0.000144709 0)
(0.999526 0.000161384 0)
(0.999467 0.000192788 0)
(0.999356 0.000222161 0)
(0.999327 0.000248116 0)
(0.999181 0.000299342 0)
(0.9991 0.000336885 0)
(0.99901 0.000392595 0)
(0.998917 0.00045704 0)
(0.99879 0.000516181 0)
(0.998699 0.00060182 0)
(0.998607 0.000682918 0)
(0.998523 0.000798246 0)
(0.998427 0.000896822 0)
(0.998337 0.00101274 0)
(0.998243 0.00111675 0)
(0.998169 0.00123086 0)
(0.998076 0.00134573 0)
(0.998003 0.00146142 0)
(0.997902 0.00158136 0)
(0.997827 0.00168641 0)
(0.997721 0.00179006 0)
(0.997642 0.00187473 0)
(0.997541 0.00196234 0)
(0.997474 0.00204075 0)
(0.997394 0.00213254 0)
(0.997344 0.00222204 0)
(0.99728 0.00232053 0)
(0.997231 0.00241024 0)
(0.997155 0.00250089 0)
(0.997068 0.0025799 0)
(0.996919 0.00265765 0)
(0.996689 0.00272513 0)
(0.996268 0.0027916 0)
(1.00002 -0.000186359 0)
(0.999784 1.27626e-05 0)
(0.99979 6.06174e-05 0)
(0.999724 5.80847e-05 0)
(0.99972 7.26024e-05 0)
(0.999639 0.000109103 0)
(0.999603 0.000151089 0)
(0.999549 0.000175225 0)
(0.999489 0.000209037 0)
(0.999378 0.000246407 0)
(0.999354 0.000274157 0)
(0.999211 0.000331496 0)
(0.999133 0.000375475 0)
(0.99905 0.000433224 0)
(0.998961 0.000506166 0)
(0.998841 0.000572353 0)
(0.998759 0.000668709 0)
(0.998678 0.000756723 0)
(0.9986 0.000870546 0)
(0.99851 0.000966718 0)
(0.998427 0.00107781 0)
(0.99834 0.00118175 0)
(0.998277 0.00128934 0)
(0.998191 0.00140087 0)
(0.998125 0.00150427 0)
(0.998022 0.00161452 0)
(0.997944 0.00170888 0)
(0.997839 0.00180978 0)
(0.997768 0.00189687 0)
(0.997681 0.00199377 0)
(0.99763 0.0020818 0)
(0.997566 0.00217889 0)
(0.997528 0.00226756 0)
(0.997473 0.00236064 0)
(0.997429 0.00244371 0)
(0.997355 0.0025271 0)
(0.997267 0.00260013 0)
(0.997117 0.00267177 0)
(0.996886 0.00273442 0)
(0.996465 0.00279557 0)
(1.00002 -0.000145835 0)
(0.999817 -1.40256e-05 0)
(0.999811 6.63653e-05 0)
(0.99974 7.50735e-05 0)
(0.99974 9.08844e-05 0)
(0.999664 0.000123972 0)
(0.999625 0.000167501 0)
(0.999569 0.000191629 0)
(0.999516 0.000226885 0)
(0.999403 0.000271597 0)
(0.999384 0.000300773 0)
(0.999246 0.000364081 0)
(0.999168 0.000416533 0)
(0.999094 0.000476697 0)
(0.99901 0.000559717 0)
(0.9989 0.000633768 0)
(0.998827 0.000737788 0)
(0.998753 0.0008248 0)
(0.998683 0.000934987 0)
(0.998597 0.00103039 0)
(0.998523 0.00113777 0)
(0.998439 0.00124471 0)
(0.998384 0.0013481 0)
(0.998301 0.00145972 0)
(0.998244 0.00155615 0)
(0.99815 0.0016612 0)
(0.998083 0.00174879 0)
(0.997985 0.00184742 0)
(0.997921 0.00193367 0)
(0.99784 0.00203051 0)
(0.997796 0.0021171 0)
(0.997739 0.00220998 0)
(0.997708 0.00229271 0)
(0.997658 0.00237778 0)
(0.997617 0.00245319 0)
(0.997546 0.0025285 0)
(0.99746 0.00259521 0)
(0.99731 0.00266061 0)
(0.99708 0.00271873 0)
(0.99666 0.00277506 0)
(1.00002 -0.000108629 0)
(0.99985 -3.81313e-05 0)
(0.999836 7.05046e-05 0)
(0.999757 9.44762e-05 0)
(0.999759 0.000110211 0)
(0.999686 0.000139571 0)
(0.999649 0.000180302 0)
(0.999594 0.000208347 0)
(0.999543 0.000244498 0)
(0.999431 0.000295225 0)
(0.999416 0.000329438 0)
(0.999285 0.0003959 0)
(0.99921 0.000460455 0)
(0.999145 0.000523472 0)
(0.999067 0.000617343 0)
(0.998966 0.000699822 0)
(0.998898 0.000802345 0)
(0.998831 0.000887635 0)
(0.998768 0.000991545 0)
(0.998688 0.0010896 0)
(0.998626 0.00119116 0)
(0.998549 0.00129957 0)
(0.998505 0.00139779 0)
(0.998427 0.00150859 0)
(0.998371 0.0016023 0)
(0.998274 0.00170504 0)
(0.998206 0.00178845 0)
(0.998117 0.0018798 0)
(0.998065 0.00196049 0)
(0.998 0.00205068 0)
(0.997966 0.00213318 0)
(0.997918 0.00222025 0)
(0.997892 0.00229881 0)
(0.997846 0.00237785 0)
(0.997808 0.00244879 0)
(0.997739 0.00251833 0)
(0.997654 0.00258092 0)
(0.997506 0.00264134 0)
(0.997276 0.00269596 0)
(0.996857 0.00274809 0)
(1.00002 -7.79108e-05 0)
(0.99988 -4.079e-05 0)
(0.999866 6.18705e-05 0)
(0.999777 0.000104867 0)
(0.999779 0.000128346 0)
(0.999711 0.000158228 0)
(0.999673 0.000199621 0)
(0.999617 0.000228252 0)
(0.999573 0.000264499 0)
(0.999462 0.000322162 0)
(0.999452 0.000359499 0)
(0.999331 0.000431801 0)
(0.999255 0.000512147 0)
(0.999202 0.000575438 0)
(0.999133 0.000674057 0)
(0.999037 0.000758778 0)
(0.998973 0.000858736 0)
(0.998911 0.000944612 0)
(0.99886 0.00104433 0)
(0.998784 0.00114579 0)
(0.998732 0.00124298 0)
(0.998658 0.00134948 0)
(0.998621 0.001441 0)
(0.998549 0.00154498 0)
(0.998501 0.00163375 0)
(0.998412 0.00173314 0)
(0.99835 0.0018181 0)
(0.998266 0.00190987 0)
(0.99822 0.00199079 0)
(0.998163 0.00207713 0)
(0.998137 0.00215557 0)
(0.998097 0.00223648 0)
(0.998075 0.0023099 0)
(0.998034 0.00238277 0)
(0.997998 0.00244868 0)
(0.997932 0.0025126 0)
(0.997848 0.00257056 0)
(0.997702 0.00262601 0)
(0.997473 0.00267651 0)
(0.997054 0.00272432 0)
(1.00003 -5.51952e-05 0)
(0.999905 -2.56776e-05 0)
(0.999894 4.5158e-05 0)
(0.999798 0.000109915 0)
(0.999798 0.000146746 0)
(0.999731 0.000178863 0)
(0.999695 0.00021931 0)
(0.999641 0.000252695 0)
(0.999602 0.000290549 0)
(0.999492 0.000353812 0)
(0.999488 0.000397051 0)
(0.999381 0.000468972 0)
(0.999306 0.000562217 0)
(0.999258 0.000624805 0)
(0.999199 0.000720384 0)
(0.999108 0.000807811 0)
(0.999049 0.000905345 0)
(0.998992 0.000995888 0)
(0.998953 0.00109135 0)
(0.998883 0.00119526 0)
(0.99884 0.00128967 0)
(0.998771 0.00139492 0)
(0.998742 0.0014843 0)
(0.998676 0.00158421 0)
(0.998633 0.00166987 0)
(0.998548 0.00176269 0)
(0.998491 0.00184267 0)
(0.998415 0.00192832 0)
(0.998377 0.00200575 0)
(0.998329 0.00208743 0)
(0.998309 0.00216242 0)
(0.998275 0.00223831 0)
(0.998257 0.0023074 0)
(0.998219 0.00237494 0)
(0.998185 0.00243624 0)
(0.99812 0.00249507 0)
(0.998037 0.0025487 0)
(0.997893 0.0025996 0)
(0.997664 0.00264624 0)
(0.997246 0.00269006 0)
(1.00003 -3.48886e-05 0)
(0.999921 -1.32797e-05 0)
(0.999918 3.9047e-05 0)
(0.999823 0.000110091 0)
(0.999817 0.00016125 0)
(0.999752 0.000199429 0)
(0.999716 0.000243628 0)
(0.99966 0.000280642 0)
(0.999631 0.00032038 0)
(0.999525 0.00038899 0)
(0.999524 0.000437728 0)
(0.999432 0.000505157 0)
(0.999357 0.000602771 0)
(0.999313 0.000668785 0)
(0.999267 0.000760933 0)
(0.999182 0.000853645 0)
(0.99913 0.000950592 0)
(0.999077 0.00104553 0)
(0.99905 0.00113812 0)
(0.998986 0.00124242 0)
(0.99895 0.00133513 0)
(0.998886 0.00143778 0)
(0.99886 0.00152352 0)
(0.9988 0.0016166 0)
(0.998762 0.00169545 0)
(0.998683 0.00178058 0)
(0.99863 0.00185569 0)
(0.998563 0.00193636 0)
(0.998533 0.00201036 0)
(0.998494 0.0020878 0)
(0.998481 0.00215926 0)
(0.998452 0.00223077 0)
(0.998437 0.002296 0)
(0.998402 0.00235896 0)
(0.998368 0.00241625 0)
(0.998306 0.00247056 0)
(0.998223 0.0025204 0)
(0.99808 0.00256718 0)
(0.997851 0.00261049 0)
(0.997435 0.00265071 0)
(1.00003 -1.98278e-05 0)
(0.999935 -7.89655e-07 0)
(0.999939 4.85463e-05 0)
(0.999846 0.00010798 0)
(0.999838 0.000168046 0)
(0.999772 0.000216664 0)
(0.999737 0.000266917 0)
(0.999683 0.000310772 0)
(0.99966 0.000353848 0)
(0.999558 0.000423677 0)
(0.999558 0.000479137 0)
(0.999482 0.000540375 0)
(0.999413 0.000641588 0)
(0.999371 0.000713841 0)
(0.999338 0.000801525 0)
(0.99926 0.000898568 0)
(0.999214 0.000994367 0)
(0.999165 0.00109194 0)
(0.999148 0.00118116 0)
(0.999092 0.00128349 0)
(0.999063 0.00137339 0)
(0.999002 0.00147212 0)
(0.998979 0.00155383 0)
(0.998921 0.00164012 0)
(0.998886 0.00171275 0)
(0.998814 0.00179101 0)
(0.99877 0.0018624 0)
(0.998712 0.00193917 0)
(0.998691 0.00201076 0)
(0.998661 0.00208405 0)
(0.998654 0.00215202 0)
(0.99863 0.00221859 0)
(0.998617 0.00227992 0)
(0.998583 0.00233799 0)
(0.99855 0.00239154 0)
(0.998488 0.00244128 0)
(0.998406 0.00248766 0)
(0.998264 0.0025303 0)
(0.998035 0.00257055 0)
(0.997619 0.00260713 0)
(1.00003 -7.62269e-06 0)
(0.999945 1.37014e-05 0)
(0.999955 5.64188e-05 0)
(0.999867 0.000110309 0)
(0.99986 0.000172774 0)
(0.999794 0.000230282 0)
(0.99976 0.000289954 0)
(0.999703 0.000340574 0)
(0.999689 0.000386802 0)
(0.999593 0.000458082 0)
(0.999592 0.000520363 0)
(0.999534 0.00057877 0)
(0.999472 0.000678178 0)
(0.999429 0.000758036 0)
(0.999409 0.000840985 0)
(0.999341 0.000938481 0)
(0.999303 0.00103419 0)
(0.999256 0.00113248 0)
(0.999248 0.00121938 0)
(0.999199 0.00131765 0)
(0.999176 0.00140382 0)
(0.999118 0.00149697 0)
(0.999094 0.0015739 0)
(0.999038 0.00165329 0)
(0.999007 0.00172115 0)
(0.998944 0.00179461 0)
(0.99891 0.00186384 0)
(0.998864 0.00193718 0)
(0.998851 0.00200645 0)
(0.998828 0.00207509 0)
(0.998825 0.0021393 0)
(0.998805 0.00220028 0)
(0.998792 0.0022575 0)
(0.99876 0.00231027 0)
(0.998726 0.00236017 0)
(0.998666 0.00240527 0)
(0.998583 0.00244849 0)
(0.998442 0.00248704 0)
(0.998214 0.0025245 0)
(0.997798 0.0025575 0)
(1.00003 7.18696e-07 0)
(0.999953 2.86557e-05 0)
(0.999969 6.6749e-05 0)
(0.999884 0.000120275 0)
(0.999881 0.000178482 0)
(0.999817 0.000239632 0)
(0.999784 0.000306058 0)
(0.999727 0.000367857 0)
(0.999718 0.000421 0)
(0.999629 0.000492889 0)
(0.999627 0.000562724 0)
(0.999582 0.000620048 0)
(0.999534 0.000712061 0)
(0.99949 0.000799139 0)
(0.999481 0.000878254 0)
(0.999425 0.000973121 0)
(0.999394 0.00106686 0)
(0.99935 0.00116554 0)
(0.999348 0.00125007 0)
(0.999305 0.0013436 0)
(0.999288 0.00142508 0)
(0.999231 0.00151167 0)
(0.999207 0.00158384 0)
(0.999153 0.0016572 0)
(0.999127 0.00172251 0)
(0.999076 0.00179195 0)
(0.999053 0.00185949 0)
(0.999018 0.00192869 0)
(0.999011 0.00199529 0)
(0.998993 0.0020588 0)
(0.998992 0.0021192 0)
(0.998975 0.00217455 0)
(0.998963 0.00222771 0)
(0.998932 0.00227537 0)
(0.998898 0.00232172 0)
(0.998839 0.00236253 0)
(0.998756 0.0024027 0)
(0.998616 0.00243759 0)
(0.998387 0.00247233 0)
(0.997972 0.00250215 0)
(1.00003 7.86817e-06 0)
(0.999958 4.18651e-05 0)
(0.999978 7.93486e-05 0)
(0.9999 0.000130918 0)
(0.999899 0.00018932 0)
(0.999841 0.000247925 0)
(0.999811 0.000318942 0)
(0.999751 0.000387692 0)
(0.999749 0.000449183 0)
(0.999667 0.000525799 0)
(0.999663 0.000602574 0)
(0.999628 0.000665028 0)
(0.999596 0.000747544 0)
(0.999554 0.000836299 0)
(0.999552 0.000914719 0)
(0.999508 0.00100365 0)
(0.999488 0.0010933 0)
(0.999446 0.00118979 0)
(0.999448 0.00127265 0)
(0.99941 0.001361 0)
(0.999397 0.00143793 0)
(0.999342 0.00151759 0)
(0.999317 0.00158599 0)
(0.999266 0.0016552 0)
(0.999247 0.00171966 0)
(0.999209 0.0017858 0)
(0.999196 0.00185122 0)
(0.999171 0.00191539 0)
(0.999169 0.00197831 0)
(0.999155 0.0020362 0)
(0.999155 0.00209252 0)
(0.999139 0.00214253 0)
(0.999127 0.0021918 0)
(0.999098 0.00223477 0)
(0.999064 0.00227768 0)
(0.999005 0.00231456 0)
(0.998923 0.00235176 0)
(0.998783 0.00238334 0)
(0.998554 0.00241545 0)
(0.99814 0.00244246 0)
(1.00003 1.31483e-05 0)
(0.999962 5.26162e-05 0)
(0.999987 9.36826e-05 0)
(0.999913 0.00014451 0)
(0.999915 0.000204338 0)
(0.999862 0.000261448 0)
(0.999839 0.000331939 0)
(0.999782 0.00040429 0)
(0.999783 0.000470971 0)
(0.99971 0.000550803 0)
(0.999706 0.000633052 0)
(0.999674 0.000703639 0)
(0.999655 0.000781679 0)
(0.999618 0.000866962 0)
(0.999621 0.000945955 0)
(0.999589 0.00102937 0)
(0.99958 0.00111215 0)
(0.999543 0.00120242 0)
(0.999548 0.0012817 0)
(0.999514 0.00136393 0)
(0.999502 0.00143656 0)
(0.99945 0.00151033 0)
(0.999427 0.00157694 0)
(0.999384 0.00164341 0)
(0.999372 0.00170722 0)
(0.999344 0.00176986 0)
(0.999339 0.001832 0)
(0.999321 0.00189054 0)
(0.999322 0.00194852 0)
(0.999312 0.00200073 0)
(0.999312 0.00205233 0)
(0.999298 0.00209753 0)
(0.999287 0.00214259 0)
(0.999258 0.0021815 0)
(0.999225 0.00222065 0)
(0.999167 0.0022541 0)
(0.999084 0.00228796 0)
(0.998945 0.00231664 0)
(0.998717 0.00234579 0)
(0.998302 0.00237031 0)
(1.00003 1.75791e-05 0)
(0.999965 6.3584e-05 0)
(0.999993 0.000107244 0)
(0.999926 0.000159468 0)
(0.99993 0.000221752 0)
(0.999883 0.000279412 0)
(0.999866 0.000350716 0)
(0.999809 0.000425062 0)
(0.999819 0.000490451 0)
(0.999755 0.000572058 0)
(0.999753 0.000652572 0)
(0.999724 0.000728143 0)
(0.999714 0.000807502 0)
(0.999684 0.000888618 0)
(0.999692 0.000968597 0)
(0.999666 0.00105039 0)
(0.999668 0.00112887 0)
(0.999637 0.0012138 0)
(0.999645 0.00128945 0)
(0.999615 0.00136791 0)
(0.999606 0.0014381 0)
(0.999559 0.0015086 0)
(0.99954 0.00157379 0)
(0.999503 0.00163761 0)
(0.999497 0.00169979 0)
(0.999476 0.00175904 0)
(0.999476 0.00181796 0)
(0.999464 0.00187174 0)
(0.999468 0.00192533 0)
(0.99946 0.00197265 0)
(0.999461 0.00202006 0)
(0.999449 0.00206116 0)
(0.999438 0.00210264 0)
(0.999411 0.0021382 0)
(0.999378 0.00217426 0)
(0.99932 0.00220493 0)
(0.999238 0.00223609 0)
(0.999099 0.00226242 0)
(0.99887 0.00228918 0)
(0.998455 0.00231168 0)
(1.00003 2.07491e-05 0)
(0.999967 7.15438e-05 0)
(0.999999 0.000120056 0)
(0.999937 0.000174057 0)
(0.999945 0.000238932 0)
(0.999902 0.000298509 0)
(0.999894 0.000367883 0)
(0.999839 0.000446084 0)
(0.999854 0.000510893 0)
(0.999799 0.00059082 0)
(0.999799 0.000670354 0)
(0.999777 0.000742309 0)
(0.999774 0.000822541 0)
(0.99975 0.000898644 0)
(0.999767 0.000972652 0)
(0.999747 0.00105003 0)
(0.999757 0.00112171 0)
(0.999732 0.00119852 0)
(0.999745 0.00126638 0)
(0.99972 0.00133737 0)
(0.999714 0.00140269 0)
(0.99967 0.00146832 0)
(0.999655 0.00153001 0)
(0.999625 0.00158926 0)
(0.999624 0.00164752 0)
(0.99961 0.00170238 0)
(0.999614 0.00175733 0)
(0.999605 0.00180692 0)
(0.99961 0.00185617 0)
(0.999605 0.00189923 0)
(0.999607 0.00194223 0)
(0.999596 0.00197951 0)
(0.999587 0.00201711 0)
(0.999561 0.00204959 0)
(0.999528 0.00208239 0)
(0.999472 0.00211056 0)
(0.999389 0.00213897 0)
(0.99925 0.00216331 0)
(0.999022 0.00218782 0)
(0.998607 0.00220881 0)
(1.00003 2.44076e-05 0)
(0.99997 8.00209e-05 0)
(1 0.000132866 0)
(0.99995 0.000187935 0)
(0.99996 0.000254677 0)
(0.999921 0.000316364 0)
(0.999923 0.000382842 0)
(0.999869 0.000463668 0)
(0.999888 0.000529215 0)
(0.999844 0.000606331 0)
(0.999845 0.000689248 0)
(0.999829 0.000759122 0)
(0.999833 0.000840192 0)
(0.99981 0.000918979 0)
(0.999832 0.000991665 0)
(0.999817 0.0010697 0)
(0.999833 0.00114119 0)
(0.999812 0.00121781 0)
(0.999829 0.00128409 0)
(0.99981 0.00135116 0)
(0.999811 0.0014131 0)
(0.999775 0.00147494 0)
(0.999763 0.00153454 0)
(0.999739 0.00159034 0)
(0.999743 0.00164521 0)
(0.999736 0.00169533 0)
(0.999744 0.00174605 0)
(0.999739 0.00179125 0)
(0.999744 0.00183674 0)
(0.999739 0.00187604 0)
(0.999742 0.00191546 0)
(0.999733 0.00194913 0)
(0.999725 0.00198308 0)
(0.9997 0.002012 0)
(0.999669 0.00204112 0)
(0.999613 0.00206578 0)
(0.999532 0.00209051 0)
(0.999394 0.00211138 0)
(0.999167 0.00213229 0)
(0.998753 0.00214997 0)
(1.00003 2.4289e-05 0)
(0.999972 8.66143e-05 0)
(1.00001 0.000144204 0)
(0.999959 0.000204403 0)
(0.999974 0.000269794 0)
(0.999938 0.000334983 0)
(0.99995 0.000395892 0)
(0.9999 0.000475258 0)
(0.999922 0.000541858 0)
(0.99989 0.000610779 0)
(0.999895 0.000690897 0)
(0.999884 0.000755755 0)
(0.999902 0.000824148 0)
(0.999883 0.000896064 0)
(0.999913 0.000956759 0)
(0.999906 0.00102122 0)
(0.999931 0.00107827 0)
(0.999914 0.00114133 0)
(0.99993 0.00119789 0)
(0.999913 0.00125586 0)
(0.999916 0.00131322 0)
(0.999886 0.00137311 0)
(0.999878 0.00143505 0)
(0.999857 0.00149275 0)
(0.999863 0.00154753 0)
(0.999859 0.0015944 0)
(0.999871 0.00164004 0)
(0.999869 0.00168013 0)
(0.999876 0.0017211 0)
(0.999872 0.0017577 0)
(0.999875 0.0017954 0)
(0.999864 0.00182921 0)
(0.999855 0.0018639 0)
(0.999829 0.00189508 0)
(0.999796 0.00192669 0)
(0.999737 0.00195497 0)
(0.999653 0.00198319 0)