/*--------------------------------*- C++ -*----------------------------------*\
| =========                 |                                                 |
| \\      /  F ield         | OpenFOAM: The Open Source CFD Toolbox           |
|  \\    /   O peration     | Version:  2312                                  |
|   \\  /    A nd           | Website:  www.openfoam.com                      |
|    \\/     M anipulation  |                                                 |
\*---------------------------------------------------------------------------*/
FoamFile
{
    version     2.0;
    format      ascii;
    arch        "LSB;label=32;scalar=64";
    class       volScalarField;
    location    "0.5";
    object      p;
}
// * * * * * * * * * * * * * * * * * * * * * * * * * * * * * * * * * * * * * //

dimensions      [0 2 -2 0 0 0 0];

internalField   nonuniform List<scalar> 
5600
(
9.76533e-09
0.000470566
0.000302627
0.000445741
0.000374238
0.000535727
0.000518449
0.000664317
0.000690639
0.000835262
0.000893531
0.00103045
0.00111421
0.00125734
0.00137331
0.00149765
0.00162959
0.00178274
0.00193134
0.00208135
0.00224663
0.00242748
0.00261466
0.00281229
0.0030133
0.00323265
0.00346079
0.00370203
0.00394403
0.00419988
0.00447089
0.0047659
0.0050762
0.00539601
0.00571234
0.00601613
0.00631614
0.00661244
0.00684166
0.00682466
2.58413e-06
0.000467653
0.000304592
0.000442941
0.000376669
0.000532112
0.000521168
0.000660169
0.000692855
0.0008294
0.000895684
0.00102439
0.00111494
0.00125172
0.00137143
0.00149241
0.00162639
0.00177748
0.00192663
0.0020763
0.00224144
0.00242067
0.00260637
0.00280003
0.00299931
0.00321501
0.00344173
0.00368001
0.00392133
0.00416937
0.0044249
0.00468536
0.00494285
0.00519515
0.00544146
0.00567155
0.00585962
0.00596346
0.00591126
0.00557756
4.91406e-06
0.000466006
0.000305654
0.00044172
0.000377672
0.000530273
0.000521758
0.000658487
0.000693413
0.000827393
0.000896015
0.00102251
0.00111432
0.00125
0.00136966
0.00149002
0.00162391
0.00177496
0.00192329
0.00207189
0.00223622
0.00241514
0.00259891
0.00279156
0.00298887
0.00320241
0.00342578
0.00365917
0.00389256
0.00412965
0.00437048
0.00461285
0.00484969
0.00508029
0.0053024
0.00550497
0.00566185
0.00573696
0.005668
0.00534617
8.83134e-06
0.000461878
0.000308135
0.000437902
0.000380684
0.000525398
0.000525141
0.000653156
0.000696019
0.000820319
0.000898216
0.00101537
0.001115
0.00124293
0.00136777
0.00148446
0.0016196
0.00176991
0.00191734
0.00206428
0.00222807
0.0024043
0.00258638
0.00277585
0.00296956
0.00317841
0.00339827
0.00362498
0.00384904
0.00406553
0.00427519
0.00448557
0.00469778
0.0049035
0.0050882
0.0052344
0.00531881
0.00530892
0.00515234
0.00475519
1.23823e-05
0.0004581
0.000310192
0.000435261
0.000382702
0.000521609
0.000526414
0.000649458
0.000697043
0.000816414
0.000898401
0.00101159
0.00111347
0.00123959
0.00136403
0.00148019
0.00161449
0.00176384
0.00191041
0.00205572
0.00221756
0.00239183
0.00257124
0.00275724
0.00294692
0.00314963
0.00336137
0.00357642
0.00378573
0.00398504
0.00417517
0.0043649
0.00455557
0.0047367
0.00489216
0.00500576
0.00505854
0.00502358
0.00485467
0.00446362
1.72779e-05
0.00045203
0.00031377
0.000430166
0.000386741
0.000515121
0.00053068
0.000642656
0.000699625
0.000808517
0.000899761
0.00100486
0.00111097
0.00123604
0.00135872
0.00147397
0.00160726
0.00175537
0.00190121
0.00204418
0.00220357
0.00237556
0.00255119
0.00273252
0.00291643
0.00311096
0.00331239
0.00351235
0.00370001
0.00387508
0.00404898
0.00422717
0.00440284
0.0045627
0.00469247
0.00477819
0.00480251
0.00473964
0.00454466
0.00413052
2.21238e-05
0.000445674
0.000317073
0.000425925
0.000389852
0.000509111
0.000532628
0.000637088
0.00070056
0.000803331
0.000898399
0.0010006
0.00110685
0.00123104
0.00135249
0.00146667
0.00159874
0.00174576
0.00188972
0.00203028
0.00218646
0.00235504
0.00252611
0.00270104
0.00287719
0.00306072
0.00324788
0.00342881
0.00359587
0.00375586
0.00391839
0.00408377
0.00424252
0.00438242
0.00449204
0.00456045
0.0045727
0.00450376
0.00430753
0.00389277
2.83508e-05
0.000436832
0.00032199
0.000419317
0.000395102
0.000500791
0.00053679
0.000629265
0.000701141
0.000796733
0.000895846
0.000998147
0.00110091
0.00122448
0.00134453
0.00145783
0.00158814
0.00173376
0.00187521
0.00201291
0.0021651
0.00232955
0.00249475
0.0026611
0.00282597
0.00299488
0.0031642
0.00332508
0.00347751
0.00362794
0.00377985
0.003931
0.00407269
0.00419546
0.00429024
0.00434856
0.00435703
0.00429252
0.00411053
0.00372175
3.48293e-05
0.00042707
0.000326781
0.0004133
0.000399059
0.000492695
0.000538897
0.000622854
0.000700343
0.000792451
0.000891464
0.000992035
0.00109437
0.00121717
0.00133563
0.00144724
0.00157546
0.001719
0.00185806
0.00199123
0.00213933
0.00229812
0.00245664
0.00261191
0.00276075
0.00290907
0.00305966
0.00320875
0.0033514
0.00348943
0.00362597
0.00376187
0.00389321
0.00401437
0.00411829
0.00419595
0.00423124
0.00419379
0.00402222
0.00359291
4.27542e-05
0.000414634
0.000332902
0.000405405
0.000405158
0.000482857
0.000541937
0.000614779
0.000696188
0.000788745
0.000886912
0.000985004
0.00108682
0.00120773
0.00132529
0.00143396
0.0015604
0.00170054
0.00183765
0.00196475
0.00210747
0.00225855
0.00240589
0.00254585
0.00267767
0.00281375
0.00295433
0.00309214
0.00321991
0.00333635
0.00344271
0.0035404
0.00363137
0.00372032
0.00380935
0.00389001
0.00396236
0.00405394
0.00423577
0.00464595
5.12186e-05
0.00040058
0.000339163
0.000397796
0.000409018
0.000473382
0.000541545
0.000611952
0.000691345
0.000782709
0.000880434
0.00097707
0.00107719
0.00119716
0.00131257
0.00141826
0.00154259
0.00167851
0.00181268
0.00193305
0.00206722
0.00220891
0.00233928
0.00246413
0.0025877
0.00271597
0.00284506
0.00296756
0.00307781
0.00317769
0.00327335
0.00337139
0.00347603
0.00358347
0.00368196
0.00376727
0.00385066
0.00396099
0.00415158
0.00452267
6.11797e-05
0.000383768
0.000345589
0.000390077
0.000414403
0.000466053
0.000534987
0.000607554
0.000686414
0.000775905
0.000872862
0.000968035
0.00106572
0.00118471
0.00129734
0.00139943
0.00152129
0.00165262
0.00178072
0.00189426
0.00201487
0.00214353
0.0022626
0.00237883
0.00249427
0.00261243
0.00272878
0.00283825
0.00293772
0.00303182
0.00312963
0.00323464
0.00333786
0.00342806
0.00350306
0.00357243
0.00365619
0.00378534
0.00400994
0.0044245
7.17974e-05
0.000365245
0.000352039
0.000382096
0.000414208
0.00046249
0.000528589
0.000601625
0.000680599
0.000768698
0.000864099
0.000957254
0.00105187
0.00116948
0.00128005
0.00137682
0.00149544
0.00162208
0.00174025
0.00184457
0.00195109
0.0020693
0.00218256
0.00229049
0.00239393
0.00249698
0.00260068
0.00270531
0.002811
0.00291514
0.00301536
0.00310802
0.00318963
0.00325919
0.00332156
0.00338896
0.00348044
0.00362258
0.00385923
0.0042762
8.38962e-05
0.000343451
0.000356889
0.000379021
0.000411751
0.000458265
0.000522505
0.000593274
0.000671418
0.000759816
0.000853788
0.00094465
0.00103602
0.00115119
0.00125973
0.00135053
0.00146278
0.00158431
0.00168972
0.00178187
0.00188137
0.00199258
0.00209952
0.00219965
0.00229631
0.00239358
0.00249064
0.00258429
0.00267407
0.00276403
0.00285675
0.00294549
0.00302252
0.00308631
0.00314436
0.00321017
0.00330205
0.00344508
0.00368107
0.00409527
9.64907e-05
0.000322584
0.000358169
0.000375183
0.000406549
0.000452993
0.000516833
0.000585908
0.000661303
0.000748569
0.00084137
0.00093
0.00101781
0.00112949
0.001235
0.00131962
0.00142224
0.00153664
0.00163289
0.00171427
0.00180692
0.00191118
0.00200936
0.00209811
0.00218348
0.00227278
0.00236815
0.00246715
0.00256177
0.00264695
0.0027226
0.00279013
0.00285015
0.00290436
0.00295819
0.00302249
0.00311361
0.00325583
0.00349109
0.00390515
0.000110023
0.000301256
0.000354041
0.000372459
0.000402956
0.000447437
0.000509776
0.000577471
0.000649826
0.000734443
0.000825705
0.000912293
0.000996295
0.00110378
0.00120479
0.00128233
0.00137437
0.00147932
0.00157074
0.00164382
0.00172672
0.00182223
0.00191157
0.00199226
0.00207227
0.00216176
0.00225949
0.00235551
0.00243913
0.00250814
0.00256638
0.00261887
0.00266812
0.00271597
0.00276694
0.00283042
0.00292153
0.00306393
0.00329932
0.00371334
0.000123748
0.000281604
0.000345296
0.000368659
0.000398438
0.000441028
0.000501295
0.000567516
0.000637147
0.000718677
0.000807133
0.000891063
0.000970766
0.00107296
0.00116858
0.0012376
0.00132067
0.001417
0.00150276
0.00156943
0.00164127
0.0017283
0.00181197
0.00188786
0.00196216
0.00204532
0.00213664
0.00222476
0.00229846
0.00235601
0.00240293
0.00244559
0.00248759
0.00253093
0.0025795
0.00264165
0.00273182
0.00287337
0.00310808
0.00352181
0.000137425
0.000262412
0.000331942
0.000363452
0.00039382
0.000434441
0.000492383
0.000556224
0.000622551
0.000700424
0.000785035
0.000865563
0.000940406
0.00103525
0.00112575
0.00118697
0.00126108
0.00135037
0.0014296
0.00148992
0.00155099
0.00162836
0.00170615
0.00177732
0.0018474
0.00192556
0.00200965
0.00208823
0.00215188
0.00219955
0.00223751
0.00227246
0.00230863
0.00234802
0.00239416
0.00245462
0.00254331
0.00268344
0.00291701
0.00333011
0.000150928
0.00024574
0.00031293
0.000355842
0.00038836
0.000426932
0.000482263
0.000543523
0.000605958
0.000679501
0.000759171
0.000835089
0.000904566
0.000990288
0.00107543
0.00113205
0.00119613
0.00127797
0.00135133
0.00140521
0.00145649
0.0015236
0.0015962
0.00166364
0.00172877
0.00179955
0.0018752
0.00194494
0.00199996
0.00203946
0.0020698
0.00209798
0.00212873
0.00216438
0.00220823
0.00226725
0.00235472
0.0024936
0.00272605
0.00313851
0.000161078
0.000231645
0.000294522
0.000343441
0.0003801
0.000417944
0.000470733
0.000529466
0.000587417
0.000655503
0.000729344
0.000798951
0.000862623
0.000939793
0.0010183
0.0010724
0.00112732
0.00119891
0.00126685
0.00131527
0.00135804
0.00141452
0.00148079
0.00154514
0.0016064
0.00166987
0.00173583
0.00179611
0.00184288
0.00187537
0.00189941
0.00192207
0.00194826
0.0019807
0.00202257
0.00208044
0.00216702
0.002305
0.00253658
0.00294853
0.000168002
0.000221965
0.000275388
0.000324988
0.000368097
0.000407102
0.000457491
0.000513326
0.000566374
0.000627968
0.000695424
0.000757799
0.00081476
0.000884819
0.000955797
0.00100547
0.00105363
0.00111379
0.00117487
0.00121897
0.00125492
0.00130196
0.00136116
0.00142256
0.00148069
0.00153738
0.00159311
0.00164307
0.00168131
0.00170749
0.00172653
0.00174504
0.00176774
0.00179761
0.00183778
0.00189463
0.00198044
0.00211769
0.00234854
0.00276006
0.000171866
0.000212174
0.000257322
0.000304762
0.000351484
0.000392698
0.00044116
0.000494202
0.000542578
0.000597025
0.000657681
0.000713205
0.00076164
0.000823891
0.000888359
0.000931199
0.000973149
0.00102362
0.00107607
0.00111603
0.0011468
0.00118639
0.00123879
0.00129743
0.00135271
0.00140269
0.00144772
0.00148658
0.00151602
0.00153629
0.00155132
0.00156679
0.001587
0.00161494
0.00165379
0.00170978
0.00179494
0.00193157
0.00216183
0.00257301
0.000172298
0.000202468
0.000240512
0.000283921
0.00032964
0.000372916
0.000420549
0.000471232
0.000515442
0.000562847
0.000616085
0.000664858
0.00070407
0.000756459
0.000815399
0.000850944
0.00088501
0.000927845
0.000971868
0.00100726
0.00103396
0.00106835
0.00111559
0.00117088
0.00122203
0.00126446
0.0012989
0.00132692
0.001348
0.00136292
0.00137472
0.00138792
0.00140635
0.00143289
0.0014708
0.00152618
0.00161086
0.00174698
0.00197676
0.00238768
0.000169221
0.00019191
0.000223437
0.000262308
0.000305435
0.000347943
0.000394315
0.000443271
0.000484253
0.00052498
0.000570207
0.000612373
0.000643332
0.000682815
0.000735582
0.000766417
0.000790191
0.000825403
0.000862761
0.000894307
0.00091808
0.000948743
0.000992205
0.0010429
0.00108793
0.00112161
0.00114579
0.00116406
0.00117804
0.00118859
0.00119798
0.00120951
0.00122661
0.00125205
0.00128926
0.00134421
0.00142861
0.00156437
0.00179378
0.00220449
0.000162329
0.000179914
0.000205982
0.00024003
0.00027945
0.000318721
0.000361829
0.000408631
0.000447255
0.000482661
0.000520135
0.000555307
0.000579529
0.000605817
0.000648836
0.000676753
0.000691098
0.000716801
0.000748578
0.000777721
0.000800403
0.000828218
0.000867845
0.000912461
0.000949842
0.000974363
0.000989124
0.000998996
0.00100712
0.00101437
0.00102215
0.00103259
0.00104865
0.00107312
0.00110966
0.00116427
0.00124852
0.00138414
0.00161341
0.0020241
0.000151933
0.000165469
0.000187013
0.000216302
0.000251364
0.000286873
0.000324845
0.000366746
0.000402543
0.000433889
0.000464978
0.00049328
0.000512478
0.000527448
0.000557196
0.000581579
0.000589695
0.000604965
0.000630292
0.000657748
0.000681025
0.000706346
0.000739944
0.000776626
0.000806238
0.000823125
0.000830409
0.000833596
0.000836846
0.00084131
0.000847754
0.000857381
0.000872549
0.000896057
0.000931815
0.000986031
0.00107019
0.00120582
0.001435
0.00184564
0.000137838
0.000148251
0.000165949
0.00019063
0.000220832
0.000252097
0.000284897
0.000320429
0.000350842
0.000377148
0.000402748
0.000425071
0.000440026
0.000447342
0.000463369
0.000481954
0.000487175
0.000493754
0.000511465
0.000536105
0.000559798
0.000582165
0.000608261
0.000636223
0.000658898
0.000670588
0.000673019
0.00067137
0.000670469
0.000672271
0.000677383
0.000686359
0.000700861
0.000723568
0.000758569
0.000812367
0.000896495
0.00103239
0.001262
0.00167318
0.000119772
0.000127612
0.000141795
0.00016215
0.000187271
0.000213675
0.000241142
0.000270337
0.000295141
0.000315594
0.000334551
0.0003503
0.000360854
0.000363061
0.000367026
0.000376591
0.000378923
0.000379197
0.000388403
0.000407411
0.000429753
0.000449821
0.000469236
0.000488599
0.000504627
0.000512769
0.000512899
0.000508655
0.000504629
0.00050362
0.000506727
0.000514464
0.000528003
0.000549739
0.000583742
0.000636736
0.000720411
0.000856259
0.0010861
0.00149775
9.8484e-05
0.000103563
0.000114104
0.000130071
0.000150059
0.000171109
0.000193166
0.000215956
0.000235072
0.000250107
0.000262982
0.000273074
0.000279591
0.000279706
0.00027702
0.000278256
0.000277637
0.000274518
0.000276329
0.000286998
0.000303853
0.000320397
0.000334419
0.000346331
0.000355557
0.000359859
0.000358455
0.000353232
0.000347572
0.0003444
0.000345367
0.000351365
0.000363518
0.000384032
0.000416848
0.000468719
0.000551372
0.000686274
0.000915207
0.00132592
7.18048e-05
7.52733e-05
8.28194e-05
9.48323e-05
0.000110058
0.000125466
0.000141579
0.00015753
0.000169762
0.000178501
0.00018369
0.000185502
0.000184525
0.000179067
0.000169048
0.000160189
0.000152873
0.000146156
0.000144059
0.000150121
0.000163311
0.000177568
0.000188772
0.000196278
0.000200516
0.000201096
0.000197577
0.000191089
0.000184152
0.00017966
0.000179791
0.000186
0.000199509
0.00022225
0.00025777
0.00031253
0.000398138
0.000536047
0.000768029
0.00118187
4.37556e-05
4.1664e-05
4.52033e-05
5.35132e-05
6.58367e-05
7.68183e-05
8.78479e-05
9.84277e-05
0.000105377
0.000110352
0.000113277
0.000112989
0.000110874
0.000106291
9.80615e-05
8.75463e-05
7.63222e-05
6.37463e-05
5.12212e-05
4.07276e-05
3.40338e-05
3.20751e-05
3.56398e-05
4.3636e-05
5.17483e-05
5.5346e-05
5.18721e-05
4.1546e-05
2.69176e-05
1.14549e-05
-1.51017e-06
-9.32098e-06
-9.71656e-06
-1.45196e-07
2.32972e-05
6.72543e-05
0.000143548
0.000273888
0.000500466
0.000911668
6.56346e-06
6.55611e-06
7.87305e-06
1.10041e-05
1.63762e-05
2.04565e-05
2.35441e-05
2.74114e-05
2.69565e-05
2.32126e-05
1.73443e-05
7.36642e-06
-6.08893e-06
-2.17062e-05
-3.89702e-05
-5.73175e-05
-7.47006e-05
-8.90221e-05
-9.76012e-05
-9.84566e-05
-9.26918e-05
-8.50747e-05
-8.03717e-05
-8.05162e-05
-8.49329e-05
-9.19828e-05
-0.000100127
-0.00010794
-0.000114024
-0.000116929
-0.000115298
-0.000107845
-9.3132e-05
-6.90098e-05
-3.1782e-05
2.51225e-05
0.00011348
0.000254969
0.000491639
0.00091156
-3.94617e-05
-3.49478e-05
-3.20152e-05
-3.10944e-05
-3.0771e-05
-3.24565e-05
-3.54534e-05
-3.47373e-05
-3.53101e-05
-3.81125e-05
-4.1343e-05
-4.65895e-05
-5.46808e-05
-6.43766e-05
-7.48481e-05
-8.61161e-05
-9.85795e-05
-0.000111722
-0.000125061
-0.000137963
-0.000150974
-0.000164791
-0.000180245
-0.000197357
-0.000216105
-0.000236484
-0.000258936
-0.000283871
-0.000311732
-0.000342758
-0.000377307
-0.000416026
-0.000460306
-0.000512593
-0.000577083
-0.00066079
-0.000775874
-0.000944317
-0.00120853
-0.00165708
-7.77636e-05
-8.04661e-05
-8.4847e-05
-9.05038e-05
-9.62153e-05
-0.000102308
-0.000111275
-0.000120252
-0.000131062
-0.00014642
-0.000163992
-0.000183819
-0.000206168
-0.000230108
-0.000253743
-0.000274878
-0.00029207
-0.000303715
-0.000309447
-0.000311032
-0.000311996
-0.000315419
-0.000322799
-0.000333377
-0.000345102
-0.000355726
-0.000363799
-0.000368623
-0.000369981
-0.000367669
-0.000361242
-0.000349815
-0.000331914
-0.000305132
-0.000265512
-0.00020632
-0.000115739
2.78737e-05
0.000266485
0.000688055
-0.000127656
-0.000130546
-0.000134799
-0.000139899
-0.000145651
-0.000151554
-0.00015963
-0.000168547
-0.000177327
-0.000187631
-0.000199369
-0.000211767
-0.000224705
-0.000238927
-0.000254923
-0.000271859
-0.000289657
-0.00030864
-0.000329477
-0.000351959
-0.000375819
-0.000400967
-0.000427862
-0.000456938
-0.000488414
-0.000522009
-0.000557377
-0.000594343
-0.000633018
-0.000673719
-0.000716972
-0.000763598
-0.000814978
-0.000873459
-0.00094303
-0.0010305
-0.00114778
-0.00131653
-0.00157875
-0.00202235
-0.000180764
-0.000187161
-0.000197477
-0.000210368
-0.000225464
-0.000241525
-0.000259666
-0.000280184
-0.000301521
-0.000324746
-0.000350618
-0.000376987
-0.000402965
-0.000427735
-0.000449911
-0.000467012
-0.000477985
-0.000484637
-0.000490527
-0.000498211
-0.000508529
-0.000520978
-0.000534431
-0.000547468
-0.000558827
-0.000567633
-0.000573427
-0.000576057
-0.000575492
-0.000571602
-0.000563979
-0.00055178
-0.000533533
-0.000506807
-0.00046758
-0.000409064
-0.000319401
-0.000176947
6.02538e-05
0.000480154
-0.000233778
-0.000238976
-0.000246623
-0.000255749
-0.00026681
-0.000278725
-0.000291936
-0.000307175
-0.000322629
-0.000338272
-0.000356112
-0.000374253
-0.000392377
-0.000411442
-0.000431861
-0.000453059
-0.000474934
-0.000498094
-0.000522996
-0.000549528
-0.000577419
-0.000606659
-0.0006375
-0.000670168
-0.000704543
-0.000740323
-0.000777268
-0.000815318
-0.000854604
-0.000895423
-0.000938286
-0.000984056
-0.00103419
-0.00109112
-0.00115889
-0.00124433
-0.00135933
-0.00152558
-0.00178504
-0.00222569
-0.000301929
-0.000311259
-0.000326333
-0.000345399
-0.000367842
-0.000392538
-0.000419184
-0.000447154
-0.000475683
-0.000503978
-0.000531536
-0.000556696
-0.00057854
-0.000595672
-0.000607961
-0.000617278
-0.000626172
-0.000636267
-0.000647977
-0.000660943
-0.000674439
-0.000687554
-0.000699378
-0.00070916
-0.000716598
-0.000721683
-0.0007245
-0.000725045
-0.000723165
-0.00071852
-0.000710538
-0.000698296
-0.000680299
-0.000654097
-0.000615639
-0.0005581
-0.000469594
-0.000328464
-9.27636e-05
0.000325452
-0.000347765
-0.000352875
-0.000362179
-0.000374844
-0.000390667
-0.000408409
-0.000427696
-0.000447848
-0.000468072
-0.000488667
-0.000510559
-0.000532151
-0.000553287
-0.00057428
-0.000594803
-0.000614439
-0.000633723
-0.000653398
-0.000673756
-0.000694621
-0.000716052
-0.000738344
-0.000761916
-0.00078697
-0.000813503
-0.00084139
-0.000870637
-0.000901323
-0.000933653
-0.000967922
-0.00100466
-0.00104476
-0.00108973
-0.00114203
-0.00120576
-0.00128773
-0.00139987
-0.00156387
-0.00182175
-0.0022616
-0.000434267
-0.000444683
-0.000463085
-0.000487832
-0.000517476
-0.000549707
-0.000583606
-0.000616254
-0.000645864
-0.000672948
-0.000696308
-0.000714483
-0.000730048
-0.000743274
-0.00075362
-0.000761367
-0.000767909
-0.000773775
-0.000778552
-0.000781851
-0.000783898
-0.000785026
-0.000785229
-0.000784108
-0.000781383
-0.000777031
-0.000771256
-0.000764151
-0.000755588
-0.00074515
-0.000732197
-0.000715766
-0.000694393
-0.000665669
-0.000625594
-0.000567368
-0.000479146
-0.000339333
-0.000106128
0.000308169
0.00658796
0.00665242
0.00691247
0.00706574
0.00703856
0.00683926
0.00652868
0.00617658
0.00583357
0.00552658
0.00526557
0.00504991
0.00487184
0.00472071
0.00458625
0.00446022
0.00433687
0.00421278
0.00408636
0.00395736
0.0038264
0.00369466
0.00356342
0.00343387
0.00330672
0.00318231
0.00306036
0.00294026
0.00282117
0.00270202
0.00258199
0.00246008
0.00233603
0.00220902
0.00207897
0.0019446
0.00180537
0.0016602
0.00150846
0.00134952
0.00118207
0.00100665
0.000823784
0.000634907
0.000442824
0.000249481
4.87893e-05
-0.000172227
-0.000426599
-0.000724147
-0.00107146
-0.00146115
-0.00190132
-0.00238208
-0.00289804
-0.00349697
-0.00420302
-0.00499259
-0.00577072
-0.00649936
-0.00710759
-0.00744391
-0.00747392
-0.00722752
-0.00684373
-0.00640909
-0.00600538
-0.005762
-0.00560561
-0.00546967
-0.00548547
-0.00555561
-0.00558043
-0.00567459
-0.0058043
-0.00587498
-0.00597124
-0.00611421
-0.0062279
-0.00631695
-0.00641885
-0.00652824
-0.00662196
-0.0066997
-0.00677529
-0.00683921
-0.00689563
-0.00695676
-0.00701069
-0.00705788
-0.00711128
-0.00717503
-0.00724225
-0.00731625
-0.00739783
-0.00748408
-0.00757623
-0.00767316
-0.00777118
-0.00787011
0.0052027
0.00527272
0.00571906
0.00615224
0.00640799
0.00644719
0.00629551
0.00602579
0.00571481
0.00541601
0.00515606
0.00494316
0.00477339
0.0046351
0.00451476
0.00440126
0.0042874
0.00416971
0.0040473
0.00392093
0.00379193
0.00366193
0.00353227
0.00340418
0.00327838
0.00315523
0.00303447
0.00291539
0.00279712
0.00267854
0.00255896
0.00243732
0.00231344
0.00218641
0.00205637
0.00192212
0.00178319
0.00163841
0.0014872
0.00132881
0.00116214
0.000987508
0.000805545
0.000617352
0.000425591
0.000232208
3.09858e-05
-0.000190703
-0.000445026
-0.000741981
-0.00108773
-0.0014742
-0.00191242
-0.00239011
-0.00290119
-0.00349491
-0.00419356
-0.00497454
-0.00574382
-0.00646671
-0.00707267
-0.00740928
-0.00744431
-0.00720311
-0.00682582
-0.00639702
-0.0059942
-0.00575291
-0.00559929
-0.00546261
-0.00547884
-0.00555086
-0.00557526
-0.00566923
-0.00580041
-0.00587168
-0.00596773
-0.00611123
-0.0062258
-0.00631523
-0.00641728
-0.00652701
-0.00662113
-0.00669915
-0.00677492
-0.00683896
-0.00689547
-0.00695671
-0.00701071
-0.00705792
-0.00711132
-0.00717506
-0.00724227
-0.00731626
-0.00739784
-0.00748407
-0.00757621
-0.00767314
-0.00777118
-0.00787011
0.00500628
0.00510817
0.00559713
0.00607617
0.00637377
0.00644662
0.00631596
0.0060533
0.00573843
0.00542981
0.0051585
0.00493545
0.00475872
0.00461715
0.00449634
0.00438367
0.00427063
0.00415296
0.00402958
0.00390144
0.00377032
0.00363824
0.00350677
0.00337718
0.00325021
0.00312618
0.00300482
0.00288534
0.00276669
0.00264769
0.00252761
0.00240554
0.00228135
0.00215414
0.00202375
0.0018889
0.00174945
0.00160437
0.0014532
0.00129521
0.00112944
0.000956193
0.000775397
0.00058846
0.000396222
0.000200505
-4.53218e-06
-0.000229698
-0.000484763
-0.000780266
-0.00112184
-0.00150271
-0.00193407
-0.00240659
-0.00291254
-0.00349562
-0.00417604
-0.00493164
-0.00567329
-0.00636863
-0.00695589
-0.00729532
-0.00735279
-0.0071415
-0.00678881
-0.00637993
-0.00599268
-0.0057576
-0.00560509
-0.00546989
-0.00548478
-0.00555397
-0.0055777
-0.0056713
-0.00580054
-0.00587083
-0.00596721
-0.00611033
-0.00622383
-0.00631307
-0.00641539
-0.00652508
-0.00661906
-0.00669716
-0.00677325
-0.0068376
-0.00689434
-0.00695576
-0.00700997
-0.0070574
-0.00711098
-0.00717487
-0.00724217
-0.00731621
-0.00739782
-0.0074841
-0.00757628
-0.00767323
-0.00777128
-0.0078702
0.00437864
0.00446032
0.00494576
0.00544864
0.00579395
0.00593344
0.005878
0.00568659
0.00543096
0.00516762
0.00492941
0.00473001
0.00457094
0.00444464
0.0043389
0.00424168
0.00414386
0.00404021
0.00392886
0.00381037
0.00368676
0.00356057
0.00343404
0.00330882
0.00318587
0.00306553
0.00294764
0.0028313
0.00271556
0.0025989
0.00248068
0.00235989
0.00223672
0.00211023
0.00198062
0.00184654
0.00170809
0.00156409
0.00141423
0.0012576
0.00109336
0.000921816
0.00074229
0.000556616
0.000363792
0.000166224
-4.14982e-05
-0.000269215
-0.000524477
-0.000817381
-0.00115571
-0.00153038
-0.00195466
-0.00242262
-0.00292158
-0.00349113
-0.00414915
-0.00487793
-0.0055907
-0.00625835
-0.00682911
-0.00716907
-0.0072473
-0.00706445
-0.00673606
-0.00635232
-0.00597864
-0.00574768
-0.00560083
-0.0054673
-0.00547971
-0.00554945
-0.00557305
-0.00566432
-0.00579389
-0.00586553
-0.00596106
-0.00610341
-0.00621794
-0.00630784
-0.00641008
-0.00652002
-0.00661454
-0.00669319
-0.0067698
-0.00683473
-0.00689198
-0.00695385
-0.00700848
-0.0070563
-0.0071102
-0.00717429
-0.00724174
-0.00731591
-0.00739761
-0.00748395
-0.00757617
-0.0076732
-0.0077714
-0.00787032
0.00410678
0.00420749
0.00471849
0.00524996
0.00562478
0.00579336
0.0057647
0.00559571
0.00535704
0.00510539
0.0048746
0.00467953
0.00452299
0.00439883
0.00429581
0.00420209
0.00410817
0.00400819
0.0038997
0.00378289
0.00365979
0.00353327
0.00340609
0.00328025
0.00315689
0.00303631
0.00291824
0.00280171
0.00268568
0.00256868
0.00244993
0.00232842
0.00220433
0.00207708
0.00194687
0.00181253
0.00167391
0.00152993
0.00138018
0.00122396
0.00106026
0.000889545
0.000710687
0.000525453
0.000332202
0.000132792
-7.73958e-05
-0.000307716
-0.000563533
-0.000855035
-0.00119005
-0.00155895
-0.00197623
-0.00243794
-0.00292876
-0.00348382
-0.00411951
-0.00482024
-0.00550365
-0.006142
-0.00669119
-0.00702689
-0.00712342
-0.00697258
-0.00667518
-0.00631823
-0.00596405
-0.00574226
-0.00560115
-0.00547129
-0.005482
-0.00554964
-0.00557298
-0.00566284
-0.0057905
-0.00586181
-0.00595705
-0.00609833
-0.00621195
-0.00630182
-0.0064042
-0.00651406
-0.00660856
-0.00668735
-0.00676457
-0.00683027
-0.00688814
-0.00695048
-0.00700572
-0.00705422
-0.00710866
-0.00717317
-0.00724094
-0.00731533
-0.0073972
-0.00748371
-0.00757609
-0.00767324
-0.00777159
-0.00787051
0.00375921
0.00385219
0.00435976
0.00489313
0.00527468
0.0054544
0.00544033
0.0052881
0.00506741
0.00483432
0.00462222
0.00444553
0.00430674
0.00419933
0.00411182
0.00403223
0.0039511
0.00386261
0.00376444
0.00365684
0.00354205
0.00342309
0.00330296
0.00318374
0.00306667
0.00295186
0.00283895
0.00272681
0.00261452
0.00250079
0.00238501
0.00226617
0.00214432
0.00201897
0.00189052
0.00175805
0.0016212
0.00147905
0.00133088
0.0011766
0.00101463
0.000845947
0.00066855
0.000484657
0.000291903
9.13072e-05
-0.00012038
-0.000351994
-0.000608165
-0.000896802
-0.00122763
-0.0015909
-0.00199923
-0.0024535
-0.00293513
-0.00347531
-0.00408774
-0.00475979
-0.00541376
-0.00602177
-0.00655038
-0.00688344
-0.00699856
-0.00688085
-0.00661251
-0.00628412
-0.0059497
-0.00573401
-0.00559848
-0.00547153
-0.00547877
-0.00554556
-0.0055691
-0.005656
-0.00578274
-0.00585536
-0.00594971
-0.00608947
-0.00620357
-0.00629408
-0.00639629
-0.00650616
-0.00660102
-0.00668037
-0.00675831
-0.0068249
-0.00688351
-0.00694648
-0.00700243
-0.00705168
-0.00710674
-0.00717169
-0.0072398
-0.00731448
-0.00739657
-0.00748325
-0.00757577
-0.00767309
-0.00777174
-0.0078707
0.00351901
0.00361176
0.00411846
0.00464815
0.00502491
0.00520065
0.0051859
0.00503874
0.00482986
0.00461482
0.00442542
0.0042738
0.00415994
0.00407471
0.004005
0.00393849
0.00386646
0.00378428
0.00369077
0.00358726
0.00347667
0.00336226
0.00324686
0.00313227
0.00301932
0.00290788
0.00279735
0.00268668
0.00257506
0.0024616
0.00234594
0.00222729
0.00210555
0.00198019
0.00185163
0.00171925
0.00158266
0.00144083
0.00129298
0.00113918
0.000977881
0.00080994
0.000633218
0.00044958
0.000256755
5.4639e-05
-0.000158569
-0.000391659
-0.000648359
-0.00093441
-0.00126165
-0.00161931
-0.00201891
-0.00246499
-0.00293736
-0.00346222
-0.00405097
-0.00469439
-0.005319
-0.00589786
-0.00640672
-0.00673564
-0.00686607
-0.00677943
-0.00654223
-0.00624256
-0.00592831
-0.0057222
-0.00559356
-0.00547076
-0.00547638
-0.00554243
-0.00556634
-0.00565154
-0.005777
-0.00584994
-0.00594379
-0.00608231
-0.00619589
-0.00628656
-0.00638882
-0.00649855
-0.00659343
-0.00667307
-0.00675172
-0.0068192
-0.00687851
-0.00694205
-0.00699875
-0.00704884
-0.00710456
-0.00717003
-0.00723854
-0.00731352
-0.00739586
-0.00748277
-0.00757555
-0.00767304
-0.00777191
-0.00787093
0.0033723
0.00348703
0.00400917
0.00453199
0.00488238
0.0050175
0.00495937
0.00478002
0.00455723
0.00434486
0.00416913
0.00403778
0.00394601
0.00388051
0.00382597
0.00376994
0.00370493
0.00362788
0.00353911
0.00344113
0.00333739
0.00323102
0.00312429
0.00301829
0.00291327
0.00280871
0.00270386
0.00259783
0.00249003
0.0023799
0.00226725
0.00215161
0.00203278
0.00191026
0.00178416
0.00165423
0.00151991
0.00138044
0.00123467
0.00108296
0.000923739
0.000757801
0.00058301
0.000400616
0.000208891
6.60636e-06
-0.000207221
-0.000440197
-0.000696413
-0.000979237
-0.00130123
-0.00165306
-0.00204263
-0.00247898
-0.00294089
-0.00344908
-0.00401375
-0.00462799
-0.00522401
-0.00577406
-0.00626259
-0.00658667
-0.00673059
-0.00667568
-0.0064699
-0.00619985
-0.00590811
-0.00571098
-0.00558893
-0.00547086
-0.00547375
-0.00553858
-0.0055632
-0.0056457
-0.00576923
-0.00584311
-0.00593625
-0.00607304
-0.00618659
-0.00627776
-0.00637987
-0.00648953
-0.00658471
-0.00666484
-0.00674428
-0.00681276
-0.00687292
-0.00693715
-0.00699468
-0.00704566
-0.00710213
-0.00716815
-0.00723709
-0.00731243
-0.00739505
-0.0074822
-0.00757514
-0.00767283
-0.00777205
-0.00787115
0.0031694
0.00322245
0.00367243
0.00413212
0.0044429
0.00457014
0.00453655
0.00440424
0.0042372
0.00407857
0.00394838
0.00385102
0.00378019
0.00372415
0.00367188
0.00361601
0.00355254
0.00348022
0.00339966
0.00331265
0.00322122
0.00312713
0.00303151
0.00293487
0.0028372
0.00273819
0.00263744
0.00253452
0.00242919
0.00232115
0.00221039
0.00209652
0.00197946
0.00185857
0.00173391
0.00160505
0.00147181
0.00133337
0.00118875
0.00103802
0.000879916
0.000714956
0.000541315
0.000359461
0.000168194
-3.44435e-05
-0.000249144
-0.000481779
-0.000737836
-0.0010176
-0.00133453
-0.00168079
-0.00206071
-0.00248661
-0.00293758
-0.00342947
-0.00397009
-0.00455561
-0.00512365
-0.00564555
-0.00611409
-0.00643299
-0.00658882
-0.00656362
-0.00638987
-0.00615009
-0.00588074
-0.00569443
-0.00558028
-0.00546757
-0.00546879
-0.00553285
-0.00555829
-0.00563873
-0.005761
-0.00583574
-0.00592832
-0.00606369
-0.00617712
-0.00626876
-0.00637089
-0.00648044
-0.00657578
-0.00665636
-0.00673662
-0.00680615
-0.00686711
-0.00693199
-0.0069904
-0.00704236
-0.0070996
-0.00716618
-0.00723559
-0.00731128
-0.00739419
-0.0074816
-0.00757485
-0.00767273
-0.00777221
-0.00787141
0.00503792
0.00495572
0.00446561
0.0039575
0.00359184
0.003404