/*--------------------------------*- C++ -*----------------------------------*\
| =========                 |                                                 |
| \\      /  F ield         | OpenFOAM: The Open Source CFD Toolbox           |
|  \\    /   O peration     | Version:  2312                                  |
|   \\  /    A nd           | Website:  www.openfoam.com                      |
|    \\/     M anipulation  |                                                 |
\*---------------------------------------------------------------------------*/
FoamFile
{
    version     2.0;
    format      ascii;
    arch        "LSB;label=32;scalar=64";
    class       surfaceScalarField;
    location    "0.5";
    object      phi;
}
// * * * * * * * * * * * * * * * * * * * * * * * * * * * * * * * * * * * * * //

dimensions      [0 3 -1 0 0 0 0];

oriented        oriented;

internalField   nonuniform List<scalar> 
11020
(
3.87748e-06
-6.52903e-08
3.87742e-06
5.14542e-08
3.87772e-06
-4.75254e-08
3.87784e-06
3.64463e-08
3.87754e-06
-2.96551e-08
3.87759e-06
2.85151e-08
3.87693e-06
-1.43763e-08
3.87726e-06
1.67799e-08
3.87659e-06
-1.76256e-08
3.87678e-06
8.50336e-09
3.87631e-06
-1.17994e-08
3.87686e-06
3.90187e-09
3.87623e-06
-7.11353e-09
3.87624e-06
5.78192e-09
3.87515e-06
1.42094e-09
3.8747e-06
1.04878e-08
3.87346e-06
6.69716e-09
3.87292e-06
1.11544e-08
3.8719e-06
6.2845e-09
3.87138e-06
8.44614e-09
3.87053e-06
4.30073e-09
3.87001e-06
5.52662e-09
3.86925e-06
2.4738e-09
3.86869e-06
3.45651e-09
3.86796e-06
1.39374e-09
3.86736e-06
2.34199e-09
3.86663e-06
9.89451e-10
3.86596e-06
1.88178e-09
3.86516e-06
1.02405e-09
3.86435e-06
1.81637e-09
3.86337e-06
1.4038e-09
3.86228e-06
2.32289e-09
3.86096e-06
2.50055e-09
3.85946e-06
3.74488e-09
3.85771e-06
4.41142e-09
3.85578e-06
5.75805e-09
3.85361e-06
6.59239e-09
3.85119e-06
8.07142e-09
3.84847e-06
9.41081e-09
1.13748e-08
3.84547e-06
4.18292e-06
-6.23472e-08
4.18761e-06
4.67628e-08
4.18412e-06
-4.40353e-08
4.18825e-06
3.2316e-08
4.18445e-06
-2.58533e-08
4.18771e-06
2.52537e-08
4.18455e-06
-1.122e-08
4.18776e-06
1.35746e-08
4.18427e-06
-1.41399e-08
4.18632e-06
6.45695e-09
4.18393e-06
-9.40733e-09
4.18625e-06
1.58137e-09
4.18425e-06
-5.11585e-09
4.18546e-06
4.57005e-09
4.1832e-06
3.68267e-09
4.18361e-06
1.00769e-08
4.18156e-06
8.74758e-09
4.18182e-06
1.08906e-08
4.1803e-06
7.8058e-09
4.18034e-06
8.40608e-09
4.17907e-06
5.57087e-09
4.17888e-06
5.71571e-09
4.17776e-06
3.60097e-09
4.1774e-06
3.81454e-09
4.17636e-06
2.43385e-09
4.17588e-06
2.82026e-09
4.17484e-06
2.03101e-09
4.1742e-06
2.5228e-09
4.17305e-06
2.17175e-09
4.17211e-06
2.75165e-09
4.17071e-06
2.81115e-09
4.16938e-06
3.64442e-09
4.16774e-06
4.14059e-09
4.16632e-06
5.17309e-09
4.16482e-06
5.90639e-09
4.16359e-06
6.99285e-09
4.16236e-06
7.81663e-09
4.16149e-06
8.94202e-09
4.16095e-06
9.94818e-09
1.11814e-08
4.16115e-06
4.51649e-06
-5.878e-08
4.5207e-06
4.25587e-08
4.51696e-06
-4.02999e-08
4.52055e-06
2.87337e-08
4.5169e-06
-2.22092e-08
4.51959e-06
2.25655e-08
4.51709e-06
-8.72288e-09
4.5199e-06
1.07675e-08
4.51661e-06
-1.08496e-08
4.51791e-06
5.15457e-09
4.5156e-06
-7.09774e-09
4.51729e-06
-1.10241e-10
4.51576e-06
-3.57718e-09
4.51651e-06
3.81646e-09
4.51473e-06
5.46136e-09
4.5149e-06
9.91162e-09
4.51333e-06
1.03152e-08
4.51348e-06
1.07415e-08
4.51227e-06
9.01121e-09
4.51226e-06
8.41959e-09
4.51125e-06
6.576e-09
4.51098e-06
5.98508e-09
4.51e-06
4.5838e-09
4.50953e-06
4.2896e-09
4.50852e-06
3.43793e-09
4.50788e-06
3.46517e-09
4.5068e-06
3.10325e-09
4.506e-06
3.32648e-09
4.50483e-06
3.34512e-09
4.50373e-06
3.84738e-09
4.50222e-06
4.3276e-09
4.50071e-06
5.15125e-09
4.49898e-06
5.86805e-09
4.49747e-06
6.68276e-09
4.496e-06
7.37587e-09
4.4948e-06
8.19002e-09
4.49367e-06
8.95555e-09
4.49281e-06
9.80044e-09
4.49221e-06
1.05494e-08
1.12552e-08
4.49213e-06
4.87783e-06
-5.56638e-08
4.88108e-06
3.93087e-08
4.8776e-06
-3.68152e-08
4.88048e-06
2.58512e-08
4.8773e-06
-1.90272e-08
4.87963e-06
2.02311e-08
4.87736e-06
-6.45133e-09
4.87964e-06
8.49061e-09
4.87682e-06
-8.03116e-09
4.87775e-06
4.22516e-09
4.87548e-06
-4.83207e-09
4.87615e-06
-7.74464e-10
4.87482e-06
-2.24865e-09
4.8751e-06
3.53353e-09
4.87407e-06
6.49607e-09
4.87395e-06
1.00265e-08
4.87329e-06
1.09748e-08
4.87308e-06
1.09536e-08
4.87241e-06
9.68209e-09
4.87201e-06
8.81572e-09
4.8713e-06
7.28528e-09
4.87069e-06
6.59735e-09
4.86994e-06
5.33981e-09
4.86917e-06
5.05087e-09
4.86824e-06
4.36816e-09
4.8673e-06
4.41053e-09
4.86615e-06
4.25611e-09
4.8649e-06
4.57155e-09
4.86343e-06
4.81204e-09
4.86194e-06
5.33928e-09
4.86037e-06
5.90286e-09
4.85887e-06
6.64396e-09
4.85744e-06
7.30432e-09
4.85613e-06
7.9903e-09
4.85493e-06
8.57876e-09
4.85392e-06
9.19252e-09
4.85314e-06
9.74109e-09
4.85266e-06
1.02833e-08
4.85249e-06
1.07189e-08
1.10605e-08
4.85268e-06
5.2676e-06
-5.26151e-08
5.27071e-06
3.61937e-08
5.26707e-06
-3.31708e-08
5.26992e-06
2.29986e-08
5.26679e-06
-1.58932e-08
5.26932e-06
1.76984e-08
5.26685e-06
-3.98611e-09
5.26888e-06
6.46622e-09
5.26611e-06
-5.26498e-09
5.26717e-06
3.17199e-09
5.26495e-06
-2.61867e-09
5.26512e-06
-9.42829e-10
5.26343e-06
-5.60813e-10
5.2636e-06
3.36375e-09
5.26283e-06
7.2671e-09
5.26275e-06
1.01116e-08
5.26234e-06
1.13819e-08
5.26219e-06
1.10987e-08
5.26169e-06
1.01893e-08
5.2613e-06
9.20599e-09
5.26057e-06
8.01504e-09
5.25987e-06
7.29157e-09
5.25901e-06
6.20808e-09
5.25815e-06
5.90513e-09
5.25707e-06
5.44958e-09
5.25601e-06
5.47357e-09
5.25475e-06
5.51168e-09
5.25349e-06
5.83659e-09
5.25197e-06
6.32505e-09
5.25032e-06
6.99343e-09
5.24857e-06
7.65046e-09
5.24698e-06
8.23269e-09
5.24554e-06
8.74193e-09
5.24433e-06
9.20852e-09
5.24325e-06
9.6569e-09
5.24236e-06
1.00769e-08
5.24167e-06
1.04346e-08
5.24123e-06
1.07247e-08
5.24104e-06
1.09099e-08
1.10095e-08
5.24109e-06
5.68828e-06
-4.94379e-08
5.69153e-06
3.29466e-08
5.68767e-06
-2.93071e-08
5.69058e-06
2.00865e-08
5.68743e-06
-1.2746e-08
5.69008e-06
1.50491e-08
5.6876e-06
-1.50907e-09
5.68931e-06
4.75893e-09
5.68674e-06
-2.69212e-09
5.68748e-06
2.42787e-09
5.68581e-06
-9.45068e-10
5.68542e-06
-5.50509e-10
5.68403e-06
8.25428e-10
5.68367e-06
3.72727e-09
5.68306e-06
7.87183e-09
5.68287e-06
1.02991e-08
5.68263e-06
1.16269e-08
5.68242e-06
1.13049e-08
5.68205e-06
1.05586e-08
5.68161e-06
9.64615e-09
5.68091e-06
8.72187e-09
5.68013e-06
8.07044e-09
5.67917e-06
7.16566e-09
5.67821e-06
6.86414e-09
5.67701e-06
6.65107e-09
5.67577e-06
6.71159e-09
5.67428e-06
6.99918e-09
5.6727e-06
7.41826e-09
5.67099e-06
8.03261e-09
5.66937e-06
8.61823e-09
5.66784e-06
9.18166e-09
5.66644e-06
9.63237e-09
5.66512e-06
1.00575e-08
5.66394e-06
1.03918e-08
5.66291e-06
1.06864e-08
5.66209e-06
1.08943e-08
5.66151e-06
1.10222e-08
5.66118e-06
1.10536e-08
5.6611e-06
1.09874e-08
1.08266e-08
5.66128e-06
6.14251e-06
-4.60772e-08
6.14595e-06
2.95074e-08
6.14187e-06
-2.52248e-08
6.14487e-06
1.70782e-08
6.14164e-06
-9.51505e-09
6.14437e-06
1.23253e-08
6.14185e-06
1.00773e-09
6.1434e-06
3.20663e-09
6.14094e-06
-2.32521e-10
6.14146e-06
1.90723e-09
6.14001e-06
5.04421e-10
6.13946e-06
-1.69177e-13
6.13807e-06
2.21645e-09
6.13752e-06
4.28451e-09
6.1369e-06
8.48992e-09
6.13672e-06
1.04812e-08
6.13645e-06
1.18911e-08
6.13622e-06
1.15358e-08
6.13579e-06
1.09855e-08
6.13534e-06
1.01027e-08
6.13458e-06
9.48031e-09
6.13379e-06
8.8564e-09
6.13274e-06
8.22223e-09
6.13169e-06
7.90962e-09
6.13039e-06
7.95102e-09
6.12905e-06
8.05534e-09
6.12745e-06
8.60004e-09
6.12578e-06
9.08194e-09
6.12407e-06
9.74097e-09
6.12253e-06
1.01653e-08
6.12107e-06
1.06362e-08
6.11975e-06
1.09506e-08
6.11852e-06
1.12946e-08
6.11738e-06
1.15297e-08
6.11637e-06
1.16927e-08
6.11555e-06
1.17196e-08
6.11492e-06
1.1647e-08
6.11453e-06
1.14421e-08
6.1144e-06
1.11241e-08
1.06058e-08
6.11462e-06
6.63303e-06
-4.25452e-08
6.63663e-06
2.59118e-08
6.63241e-06
-2.10093e-08
6.63541e-06
1.40818e-08
6.63222e-06
-6.32795e-09
6.6348e-06
9.74681e-09
6.63249e-06
3.31594e-09
6.63363e-06
2.07024e-09
6.63161e-06
1.78185e-09
6.63168e-06
1.84028e-09
6.63052e-06
1.66598e-09
6.62978e-06
7.32429e-10
6.6283e-06
3.6962e-09
6.62771e-06
4.87931e-09
6.62701e-06
9.19432e-09
6.62691e-06
1.0574e-08
6.6265e-06
1.23009e-08
6.62633e-06
1.17123e-08
6.62571e-06
1.16055e-08
6.62527e-06
1.05395e-08
6.62437e-06
1.03834e-08
6.62361e-06
9.61118e-09
6.62244e-06
9.39196e-09
6.62137e-06
8.97944e-09
6.61992e-06
9.40057e-09
6.61839e-06
9.58712e-09
6.61666e-06
1.03333e-08
6.61506e-06
1.06793e-08
6.6135e-06
1.12993e-08
6.61212e-06
1.15431e-08
6.61077e-06
1.1992e-08
6.60953e-06
1.21928e-08
6.60831e-06
1.25104e-08
6.60723e-06
1.26109e-08
6.60622e-06
1.27025e-08
6.60538e-06
1.25562e-08
6.60469e-06
1.2339e-08
6.6042e-06
1.1929e-08
6.60374e-06
1.15873e-08
1.08737e-08
6.60347e-06
7.16273e-06
-3.8849e-08
7.16647e-06
2.21778e-08
7.16214e-06
-1.66797e-08
7.16512e-06
1.10959e-08
7.16199e-06
-3.18924e-09
7.16439e-06
7.34307e-09
7.16226e-06
5.44957e-09
7.16304e-06
1.28514e-09
7.16144e-06
3.38235e-09
7.16116e-06
2.11907e-09
7.16005e-06
2.77524e-09
7.15922e-06
1.56162e-09
7.15788e-06
5.0361e-09
7.15712e-06
5.64216e-09
7.15639e-06
9.92205e-09
7.15622e-06
1.07467e-08
7.15576e-06
1.27624e-08
7.15552e-06
1.1953e-08
7.15483e-06
1.22981e-08
7.15428e-06
1.10815e-08
7.15333e-06
1.13347e-08
7.15243e-06
1.05115e-08
7.15114e-06
1.06878e-08
7.14971e-06
1.04058e-08
7.14801e-06
1.11043e-08
7.14643e-06
1.11624e-08
7.14495e-06
1.18172e-08
7.14366e-06
1.19684e-08
7.14242e-06
1.25405e-08
7.1412e-06
1.27545e-08
7.13995e-06
1.3249e-08
7.1387e-06
1.34385e-08
7.1374e-06
1.38152e-08
7.13612e-06
1.38835e-08
7.13486e-06
1.39718e-08
7.13365e-06
1.37565e-08
7.13251e-06
1.34884e-08
7.13158e-06
1.28509e-08
7.1314e-06
1.17717e-08
1.02583e-08
7.13201e-06
7.73478e-06
-3.50245e-08
7.73859e-06
1.83707e-08
7.73425e-06
-1.23481e-08
7.73704e-06
8.30673e-09
7.7342e-06
-3.43234e-10
7.73607e-06
5.4694e-09
7.73474e-06
6.78308e-09
7.73418e-06
1.84484e-09
7.73382e-06
3.73632e-09
7.73294e-06
3.00341e-09
7.73206e-06
3.65556e-09
7.73076e-06
2.86521e-09
7.72983e-06
5.9609e-09
7.7287e-06
6.77095e-09
7.72822e-06
1.04021e-08
7.7277e-06
1.12659e-08
7.7274e-06
1.30611e-08
7.72688e-06
1.24809e-08
7.72633e-06
1.28496e-08
7.72547e-06
1.19392e-08
7.72464e-06
1.21651e-08
7.72339e-06
1.17537e-08
7.72205e-06
1.20372e-08
7.72035e-06
1.21057e-08
7.71883e-06
1.2618e-08
7.71732e-06
1.26772e-08
7.71601e-06
1.31269e-08
7.71468e-06
1.32936e-08
7.71354e-06
1.36789e-08
7.71252e-06
1.37751e-08
7.71178e-06
1.39903e-08
7.71136e-06
1.38583e-08
7.71136e-06
1.38126e-08
7.7117e-06
1.3544e-08
7.71236e-06
1.33174e-08
7.71316e-06
1.29521e-08
7.71406e-06
1.25927e-08
7.71482e-06
1.20851e-08
7.71494e-06
1.16543e-08
1.0816e-08
7.71438e-06
8.35254e-06
-3.11038e-08
8.35636e-06
1.45471e-08
8.3521e-06
-8.08829e-09
8.35463e-06
5.78005e-09
8.35216e-06
2.12957e-09
8.35336e-06
4.26531e-09
8.35312e-06
7.02882e-09
8.35166e-06
3.30402e-09
8.35137e-06
4.0262e-09
8.35025e-06
4.12223e-09
8.34955e-06
4.35624e-09
8.34808e-06
4.33054e-09
8.34731e-06
6.73126e-09
8.34605e-06
8.02973e-09
8.3456e-06
1.08567e-08
8.34493e-06
1.19371e-08
8.34461e-06
1.33766e-08
8.34391e-06
1.3179e-08
8.34338e-06
1.3385e-08
8.34226e-06
1.30574e-08
8.3413e-06
1.31286e-08
8.33971e-06
1.33388e-08
8.33832e-06
1.34324e-08
8.33675e-06
1.36721e-08
8.33549e-06
1.38806e-08
8.33413e-06
1.40393e-08
8.33298e-06
1.42711e-08
8.33184e-06
1.44362e-08
8.33092e-06
1.46002e-08
8.33013e-06
1.45586e-08
8.32973e-06
1.43973e-08
8.3295e-06
1.40827e-08
8.32955e-06
1.37653e-08
8.32965e-06
1.34456e-08
8.32986e-06
1.31051e-08
8.33012e-06
1.26926e-08
8.33046e-06
1.22553e-08
8.33082e-06
1.17214e-08
8.33135e-06
1.11238e-08
1.03605e-08
8.33181e-06
9.01969e-06
-2.71491e-08
9.02344e-06
1.0804e-08
9.01942e-06
-4.07065e-09
9.02139e-06
3.80575e-09
9.01962e-06
3.90213e-09
9.01956e-06
4.32363e-09
9.01999e-06
6.59802e-09
9.01903e-06
4.26716e-09
9.0183e-06
4.754e-09
9.01727e-06
5.15134e-09
9.01636e-06
5.26621e-09
9.015e-06
5.69338e-09
9.01403e-06
7.69926e-09
9.0129e-06
9.15779e-09
9.01223e-06
1.15308e-08
9.01161e-06
1.2558e-08
9.01109e-06
1.38943e-08
9.01034e-06
1.39303e-08
9.0096e-06
1.41211e-08
9.00834e-06
1.43169e-08
9.0071e-06
1.43675e-08
9.00564e-06
1.48045e-08
9.00428e-06
1.479e-08
9.00295e-06
1.49994e-08
9.00171e-06
1.51241e-08
9.00052e-06
1.52345e-08
8.99944e-06
1.53428e-08
8.99856e-06
1.53171e-08
8.998e-06
1.51595e-08
8.99767e-06
1.48923e-08
8.99746e-06
1.46024e-08
8.99734e-06
1.42101e-08
8.99724e-06
1.38675e-08
8.99717e-06
1.35083e-08
8.99716e-06
1.31151e-08
8.99723e-06
1.26263e-08
8.99732e-06
1.21631e-08
8.9974e-06
1.16387e-08
8.99742e-06
1.11025e-08
1.05946e-08
8.99719e-06
9.74017e-06
-2.32199e-08
9.74372e-06
7.25478e-09
9.74021e-06
-5.53486e-10
9.74141e-06
2.60384e-09
9.74077e-06
4.53663e-09
9.73993e-06
5.16584e-09
9.73996e-06
6.57338e-09
9.73927e-06
4.95004e-09
9.73851e-06
5.51237e-09
9.73744e-06
6.22766e-09
9.73643e-06
6.27445e-09
9.73512e-06
7.00736e-09
9.73407e-06
8.74635e-09
9.73297e-06
1.02586e-08
9.73216e-06
1.23396e-08
9.73145e-06
1.32712e-08
9.73081e-06
1.45301e-08
9.72984e-06
1.49043e-08
9.72882e-06
1.51345e-08
9.72749e-06
1.56454e-08
9.72615e-06
1.57085e-08
9.72493e-06
1.60291e-08
9.7237e-06
1.60147e-08
9.72263e-06
1.60707e-08
9.72169e-06
1.60671e-08
9.72092e-06
1.60007e-08
9.72031e-06
1.59533e-08
9.71984e-06
1.57898e-08
9.71929e-06
1.57068e-08
9.71879e-06
1.53904e-08
9.71835e-06
1.50487e-08
9.71796e-06
1.45995e-08
9.71765e-06
1.41738e-08
9.7175e-06
1.36634e-08
9.71739e-06
1.32179e-08
9.71729e-06
1.27266e-08
9.71723e-06
1.22316e-08
9.71714e-06
1.1723e-08
9.71706e-06
1.11836e-08
1.06291e-08
9.71703e-06
1.05183e-05
-1.94237e-08
1.05215e-05
4.05144e-09
1.05195e-05
1.431e-09
1.05191e-05
2.99269e-09
1.05187e-05
4.93757e-09
1.05179e-05
5.98749e-09
1.05175e-05
6.9323e-09
1.05168e-05
5.70548e-09
1.05162e-05
6.11089e-09
1.05152e-05
7.22887e-09
1.05141e-05
7.38621e-09
1.05127e-05
8.34915e-09
1.05116e-05
9.86525e-09
1.05105e-05
1.1344e-08
1.05096e-05
1.32371e-08
1.05087e-05
1.41602e-08
1.05079e-05
1.53337e-08
1.05068e-05
1.6052e-08
1.05056e-05
1.63263e-08
1.05044e-05
1.68077e-08
1.05032e-05
1.69142e-08
1.05021e-05
1.71436e-08
1.0501e-05
1.71618e-08
1.04998e-05
1.71975e-08
1.04987e-05
1.71944e-08
1.04976e-05
1.70748e-08
1.04967e-05
1.68788e-08
1.04961e-05
1.64266e-08
1.04958e-05
1.59671e-08
1.04957e-05
1.54835e-08
1.04957e-05
1.50758e-08
1.04956e-05
1.46625e-08
1.04955e-05
1.42781e-08
1.04953e-05
1.38579e-08
1.04952e-05
1.3383e-08
1.0495e-05
1.28591e-08
1.04949e-05
1.23236e-08
1.04949e-05
1.17624e-08
1.04949e-05
1.1199e-08
1.06403e-08
1.04949e-05
1.13586e-05
-1.58126e-08
1.13613e-05
1.27268e-09
1.13601e-05
2.71301e-09
1.13591e-05
3.92927e-09
1.13585e-05
5.5129e-09
1.13581e-05
6.47163e-09
1.13575e-05
7.45785e-09
1.13566e-05
6.61615e-09
1.13559e-05
6.8572e-09
1.1355e-05
8.13991e-09
1.13538e-05
8.53968e-09
1.13525e-05
9.64608e-09
1.13513e-05
1.10738e-08
1.13502e-05
1.24789e-08
1.13491e-05
1.42844e-08
1.13481e-05
1.52224e-08
1.13471e-05
1.6336e-08
1.13459e-05
1.71668e-08
1.13447e-05
1.75516e-08
1.13437e-05
1.78625e-08
1.13426e-05
1.8003e-08
1.13415e-05
1.82166e-08
1.13405e-05
1.81701e-08
1.13396e-05
1.81223e-08
1.13388e-05
1.79169e-08
1.13383e-05
1.76588e-08
1.13378e-05
1.73088e-08
1.13374e-05
1.68593e-08
1.1337e-05
1.64031e-08
1.13365e-05
1.5953e-08
1.13361e-05
1.54814e-08
1.13358e-05
1.49973e-08
1.13355e-05
1.45276e-08
1.13353e-05
1.40227e-08
1.13352e-05
1.35022e-08
1.13351e-05
1.29413e-08
1.13351e-05
1.23699e-08
1.13351e-05
1.17776e-08
1.13351e-05
1.11891e-08
1.05726e-08
1.13352e-05
1.2266e-05
-1.24773e-08
1.22683e-05
-9.88337e-10
1.22674e-05
3.54554e-09
1.22664e-05
4.97031e-09
1.22657e-05
6.24123e-09
1.22651e-05
7.01677e-09
1.22646e-05
7.95165e-09
1.22637e-05
7.57377e-09
1.22627e-05
7.78947e-09
1.22618e-05
9.06545e-09
1.22607e-05
9.688e-09
1.22594e-05
1.09495e-08
1.22581e-05
1.23536e-08
1.22569e-05
1.36645e-08
1.22557e-05
1.54727e-08
1.22546e-05
1.63693e-08
1.22534e-05
1.74712e-08
1.22524e-05
1.82243e-08
1.22512e-05
1.86845e-08
1.22502e-05
1.89216e-08
1.22492e-05
1.89339e-08
1.22483e-05
1.91104e-08
1.22476e-05
1.89466e-08
1.22469e-05
1.88269e-08
1.22463e-05
1.85293e-08
1.22456e-05
1.82624e-08
1.22451e-05
1.78529e-08
1.22446e-05
1.73683e-08
1.22441e-05
1.68668e-08
1.22437e-05
1.63393e-08
1.22434e-05
1.58337e-08
1.22431e-05
1.52893e-08
1.22429e-05
1.47454e-08
1.22427e-05
1.41756e-08
1.22426e-05
1.3606e-08
1.22426e-05
1.29996e-08
1.22425e-05
1.23999e-08
1.22425e-05
1.17818e-08
1.22425e-05
1.11802e-08
1.05579e-08
1.22426e-05
1.32459e-05
-9.47585e-09
1.32476e-05
-2.66429e-09
1.32471e-05
4.00309e-09
1.32462e-05
5.94826e-09
1.32454e-05
7.06016e-09
1.32446e-05
7.72642e-09
1.3244e-05
8.5487e-09
1.32431e-05
8.50313e-09
1.32421e-05
8.80533e-09
1.32411e-05
1.00929e-08
1.32399e-05
1.0844e-08
1.32386e-05
1.22195e-08
1.32373e-05
1.36837e-08
1.32361e-05
1.49161e-08
1.32347e-05
1.68013e-08
1.32335e-05
1.75795e-08
1.32324e-05
1.8597e-08
1.32313e-05
1.92825e-08
1.32304e-05
1.96659e-08
1.32294e-05
1.99218e-08
1.32285e-05
1.97936e-08
1.32276e-05
1.99706e-08
1.32268e-05
1.97748e-08
1.32261e-05
1.95761e-08
1.32254e-05
1.91734e-08
1.3225e-05
1.87115e-08
1.32246e-05
1.82443e-08
1.32242e-05
1.77272e-08
1.32238e-05
1.72373e-08
1.32235e-05
1.66626e-08
1.32232e-05
1.61112e-08
1.3223e-05
1.5507e-08
1.32228e-05
1.49287e-08
1.32227e-05
1.42978e-08
1.32226e-05
1.36848e-08
1.32226e-05
1.30347e-08
1.32226e-05
1.24062e-08
1.32226e-05
1.17612e-08
1.32227e-05
1.11424e-08
1.05044e-08
1.32227e-05
1.43042e-05
-6.90194e-09
1.4305e-05
-3.52575e-09
1.4305e-05
4.02791e-09
1.43042e-05
6.74627e-09
1.43033e-05
7.93444e-09
1.43025e-05
8.56172e-09
1.43017e-05
9.31588e-09
1.43007e-05
9.51616e-09
1.42997e-05
9.84247e-09
1.42986e-05
1.11704e-08
1.42974e-05
1.20617e-08
1.42961e-05
1.35072e-08
1.42947e-05
1.50587e-08
1.42934e-05
1.61958e-08
1.42921e-05
1.81344e-08
1.42908e-05
1.88399e-08
1.42898e-05
1.96336e-08
1.42888e-05
2.03242e-08
1.42878e-05
2.0581e-08
1.42869e-05
2.0832e-08
1.42861e-05
2.06288e-08
1.42854e-05
2.06616e-08
1.42848e-05
2.04366e-08
1.42842e-05
2.01239e-08
1.42837e-05
1.97179e-08
1.42832e-05
1.92173e-08
1.42827e-05
1.87176e-08
1.42823e-05
1.81185e-08
1.4282e-05
1.75575e-08
1.42817e-05
1.69207e-08
1.42815e-05
1.63291e-08
1.42813e-05
1.56724e-08
1.42812e-05
1.50461e-08
1.42811e-05
1.43718e-08
1.42811e-05
1.37188e-08
1.42811e-05
1.30382e-08
1.42811e-05
1.23807e-08
1.42812e-05
1.1717e-08
1.42812e-05
1.10797e-08
1.04306e-08
1.42813e-05
1.54469e-05
-4.79603e-09
1.54463e-05
-2.94176e-09
1.54471e-05
3.25571e-09
1.54467e-05
7.11688e-09
1.54458e-05
8.81902e-09
1.54449e-05
9.51605e-09
1.54439e-05
1.02467e-08
1.54428e-05
1.06525e-08
1.54417e-05
1.09804e-08
1.54405e-05
1.2331e-08
1.54392e-05
1.33715e-08
1.54379e-05
1.4823e-08
1.54365e-05
1.64666e-08
1.54352e-05
1.75119e-08
1.5434e-05
1.93145e-08
1.54328e-05
2.00363e-08
1.54318e-05
2.06174e-08
1.54309e-05
2.12522e-08
1.543e-05
2.14879e-08
1.54292e-05
2.16415e-08
1.54284e-05
2.14245e-08
1.54277e-05
2.13094e-08
1.54271e-05
2.10711e-08
1.54265e-05
2.06777e-08
1.5426e-05
2.01952e-08
1.54257e-05
1.95984e-08
1.54253e-05
1.90436e-08
1.5425e-05
1.84112e-08
1.54248e-05
1.77949e-08
1.54246e-05
1.71259e-08
1.54245e-05
1.64736e-08
1.54243e-05
1.57814e-08
1.54243e-05
1.50999e-08
1.54243e-05
1.43983e-08
1.54243e-05
1.37042e-08
1.54243e-05
1.30062e-08
1.54244e-05
1.232e-08
1.54244e-05
1.16456e-08
1.54245e-05
1.09893e-08
1.03374e-08
1.54246e-05
1.66808e-05
-3.15093e-09
1.66797e-05
-1.8643e-09
1.66804e-05
2.61617e-09
1.66803e-05
7.21734e-09
1.66795e-05
9.62341e-09
1.66785e-05
1.05142e-08
1.66775e-05
1.12666e-08
1.66762e-05
1.19158e-08
1.66749e-05
1.23033e-08
1.66736e-05
1.36126e-08
1.66722e-05
1.47973e-08
1.66708e-05
1.61603e-08
1.66695e-05
1.77888e-08
1.66682e-05
1.87759e-08
1.66672e-05
2.03657e-08
1.66661e-05
2.10979e-08
1.66651e-05
2.16089e-08
1.66643e-05
2.20685e-08
1.66635e-05
2.23488e-08
1.66627e-05
2.24001e-08
1.6662e-05
2.21556e-08
1.66614e-05
2.19182e-08
1.66608e-05
2.15912e-08
1.66604e-05
2.11508e-08
1.666e-05
2.05706e-08
1.66597e-05
1.9929e-08
1.66594e-05
1.92758e-08
1.66592e-05
1.86166e-08
1.66591e-05
1.79437e-08
1.66589e-05
1.72588e-08
1.66589e-05
1.65445e-08
1.66588e-05
1.58297e-08
1.66588e-05
1.50966e-08
1.66588e-05
1.43755e-08
1.66589e-05
1.36456e-08
1.6659e-05
1.29352e-08
1.66591e-05
1.22264e-08
1.66592e-05
1.1545e-08
1.66593e-05
1.08753e-08
1.02205e-08
1.66594e-05
1.80131e-05
-1.80685e-09
1.8012e-05
-8.34979e-10
1.80119e-05
2.7809e-09
1.8012e-05
7.03805e-09
1.80115e-05
1.01168e-08
1.80106e-05
1.14606e-08
1.80095e-05
1.23697e-08
1.80081e-05
1.32738e-08
1.80067e-05
1.37757e-08
1.80053e-05
1.49791e-08
1.80038e-05
1.62496e-08
1.80025e-05
1.74917e-08
1.80013e-05
1.90094e-08
1.80001e-05
1.99763e-08
1.7999e-05
2.14158e-08
1.79981e-05
2.20209e-08
1.79972e-05
2.25761e-08
1.79964e-05
2.2859e-08
1.79956e-05
2.30819e-08
1.79949e-05
2.3119e-08
1.79943e-05
2.27831e-08
1.79937e-05
2.24953e-08
1.79933e-05
2.20167e-08
1.79929e-05
2.15208e-08
1.79927e-05
2.082e-08
1.79924e-05
2.0156e-08
1.79923e-05
1.94167e-08
1.79922e-05
1.87476e-08
1.79921e-05
1.80189e-08
1.7992e-05
1.73128e-08
1.7992e-05
1.65535e-08
1.7992e-05
1.58122e-08
1.79921e-05
1.50447e-08
1.79922e-05
1.43001e-08
1.79923e-05
1.35485e-08
1.79924e-05
1.2822e-08
1.79925e-05
1.21023e-08
1.79926e-05
1.14113e-08
1.79928e-05
1.07374e-08
1.00776e-08
1.79929e-05
1.94516e-05
-7.63044e-10
1.94506e-05
2.21711e-10
1.94499e-05
3.43839e-09
1.945e-05
6.91794e-09
1.94498e-05
1.03389e-08
1.9449e-05
1.22881e-08
1.94479e-05
1.3455e-08
1.94465e-05
1.46527e-08
1.9445e-05
1.53209e-08
1.94436e-05
1.63874e-08
1.94421e-05
1.76911e-08
1.94408e-05
1.88482e-08
1.94396e-05
2.02067e-08
1.94385e-05
2.10417e-08
1.94375e-05
2.24536e-08
1.94366e-05
2.28838e-08
1.94358e-05
2.34012e-08
1.9435e-05
2.36628e-08
1.94344e-05
2.36871e-08
1.94337e-05
2.37616e-08
1.94332e-05
2.32812e-08
1.94328e-05
2.29577e-08
1.94325e-05
2.231e-08
1.94322e-05
2.17763e-08
1.94321e-05
2.09974e-08
1.94319e-05
2.02994e-08
1.94318e-05
1.95079e-08
1.94318e-05
1.87944e-08
1.94318e-05
1.80329e-08
1.94318e-05
1.72866e-08
1.94318e-05
1.65053e-08
1.94319e-05
1.57272e-08
1.9432e-05
1.49451e-08
1.94321e-05
1.41713e-08
1.94323e-05
1.34127e-08
1.94324e-05
1.26667e-08
1.94326e-05
1.19467e-08
1.94328e-05
1.12444e-08
1.94329e-05
1.05744e-08
9.90913e-09
1.94331e-05
2.1005e-05
2.89081e-11
2.10039e-05
1.32049e-09
2.10032e-05
4.15505e-09
2.10029e-05
7.24248e-09
2.10027e-05
1.04835e-08
2.10021e-05
1.288e-08
2.10011e-05
1.44471e-08
2.09999e-05
1.59446e-08
2.09983e-05
1.68518e-08
2.09969e-05
1.78512e-08
2.09954e-05
1.91163e-08
2.09941e-05
2.01676e-08
2.09929e-05
2.14178e-08
2.09919e-05
2.20253e-08
2.0991e-05
2.338e-08
2.09901e-05
2.3763e-08
2.09895e-05
2.405e-08
2.09887e-05
2.44023e-08
2.09882e-05
2.41987e-08
2.09877e-05
2.42614e-08
2.09873e-05
2.36617e-08
2.0987e-05
2.32618e-08
2.09868e-05
2.25148e-08
2.09867e-05
2.1896e-08
2.09866e-05
2.10936e-08
2.09866e-05
2.0341e-08
2.09865e-05
1.95442e-08
2.09866e-05
1.87664e-08
2.09866e-05
1.799e-08
2.09867e-05
1.71875e-08
2.09868e-05
1.6399e-08
2.0987e-05
1.55803e-08
2.09871e-05
1.47951e-08
2.09873e-05
1.39936e-08
2.09875e-05
1.32357e-08
2.09876e-05
1.24734e-08
2.09878e-05
1.17576e-08
2.0988e-05
1.10475e-08
2.09882e-05
1.03842e-08
9.71707e-09
2.09884e-05
2.26823e-05
6.26451e-10
2.26813e-05
2.37808e-09
2.26805e-05
4.95504e-09
2.26799e-05
7.81621e-09
2.26796e-05
1.07913e-08
2.26791e-05
1.33669e-08
2.26783e-05
1.52413e-08
2.26772e-05
1.70781e-08
2.26757e-05
1.82922e-08
2.26743e-05
1.92798e-08
2.26729e-05
2.05155e-08
2.26716e-05
2.14438e-08
2.26704e-05
2.26168e-08
2.26695e-05
2.29736e-08
2.26687e-05
2.41229e-08
2.26679e-05
2.46233e-08
2.26674e-05
2.45771e-08
2.26668e-05
2.49678e-08
2.26664e-05
2.46327e-08
2.2666e-05
2.45905e-08
2.26658e-05
2.39243e-08
2.26656e-05
2.33956e-08
2.26655e-05
2.26234e-08
2.26655e-05
2.18929e-08
2.26655e-05
2.1108e-08
2.26656e-05
2.02939e-08
2.26656e-05
1.95139e-08
2.26657e-05
1.86683e-08
2.26658e-05
1.78783e-08
2.2666e-05
1.70259e-08
2.26661e-05
1.62285e-08
2.26663e-05
1.53793e-08
2.26665e-05
1.45894e-08
2.26668e-05
1.37717e-08
2.2667e-05
1.30131e-08
2.26672e-05
1.22449e-08
2.26674e-05
1.15319e-08
2.26677e-05
1.08226e-08
2.26679e-05
1.0164e-08
9.5026e-09
2.26681e-05
2.44935e-05
1.10362e-09
2.44926e-05
3.29595e-09
2.44916e-05
5.8604e-09
2.44909e-05
8.53094e-09
2.44904e-05
1.13408e-08
2.44898e-05
1.38998e-08
2.44892e-05
1.59119e-08
2.44883e-05
1.79495e-08
2.44871e-05
1.95431e-08
2.44857e-05
2.06018e-08
2.44844e-05
2.18326e-08
2.44832e-05
2.26421e-08
2.44821e-05
2.37107e-08
2.44811e-05
2.39489e-08
2.44806e-05
2.46872e-08
2.44799e-05
2.53325e-08
2.44794e-05
2.50609e-08
2.44791e-05
2.5294e-08
2.44788e-05
2.49318e-08
2.44786e-05
2.47204e-08
2.44785e-05
2.40574e-08
2.44785e-05
2.33715e-08
2.44785e-05
2.26199e-08
2.44786e-05
2.18111e-08
2.44787e-05
2.10564e-08
2.44788e-05
2.01805e-08
2.44789e-05
1.93853e-08
2.44791e-05
1.84967e-08
2.44793e-05
1.76901e-08
2.44795e-05
1.68077e-08
2.44797e-05
1.59923e-08
2.448e-05
1.51294e-08
2.44802e-05
1.43279e-08
2.44805e-05
1.35083e-08
2.44808e-05
1.27445e-08
2.4481e-05
1.19812e-08
2.44813e-05
1.12681e-08
2.44815e-05
1.0576e-08
2.44818e-05
9.92307e-09
9.26126e-09
2.4482e-05
2.64492e-05
1.48045e-09
2.64484e-05
4.10195e-09
2.64475e-05
6.76201e-09
2.64466e-05
9.37587e-09
2.64459e-05
1.2069e-08
2.64452e-05
1.46221e-08
2.64445e-05
1.66162e-08
2.64438e-05
1.86667e-08
2.64428e-05
2.04803e-08
2.64417e-05
2.16922e-08
2.64406e-05
2.2964e-08
2.64395e-05
2.37151e-08
2.64386e-05
2.46342e-08
2.64377e-05
2.48592e-08
2.64372e-05
2.51506e-08
2.64368e-05
2.57858e-08
2.64364e-05
2.54501e-08
2.64363e-05
2.54133e-08
2.64362e-05
2.50322e-08
2.64362e-05
2.4658e-08
2.64362e-05
2.4051e-08
2.64363e-05
2.32677e-08
2.64364e-05
2.25217e-08
2.64366e-05
2.16577e-08
2.64368e-05
2.08856e-08
2.6437e-05
1.99832e-08
2.64372e-05
1.91602e-08
2.64374e-05
1.82496e-08
2.64377e-05
1.74112e-08
2.6438e-05
1.65207e-08
2.64383e-05
1.56841e-08
2.64386e-05
1.48244e-08
2.64389e-05
1.40114e-08
2.64392e-05
1.32011e-08
2.64395e-05
1.24337e-08
2.64398e-05
1.1684e-08
2.64401e-05
1.0973e-08
2.64404e-05
1.02878e-08
2.64407e-05
9.63823e-09
9.00578e-09
2.6441e-05
2.8561e-05
1.78164e-09
2.85603e-05
4.81306e-09
2.85595e-05
7.61359e-09
2.85586e-05
1.02801e-08
2.85577e-05
1.29062e-08
2.85569e-05
1.54605e-08
2.8556e-05
1.75107e-08
2.85552e-05
1.94253e-08
2.85544e-05
2.12541e-08
2.85536e-05
2.24935e-08
2.85529e-05
2.37433e-08
2.85521e-05
2.45242e-08
2.85514e-05
2.52907e-08
2.85507e-05
2.55945e-08
2.85503e-05
2.5554e-08
2.85501e-05
2.59866e-08
2.85498e-05
2.57004e-08
2.85498e-05
2.54131e-08
2.85499e-05
2.4974e-08
2.85501e-05
2.44545e-08
2.85503e-05
2.38575e-08
2.85505e-05
2.30312e-08
2.85508e-05
2.22637e-08
2.8551e-05
2.13837e-08
2.85513e-05
2.05877e-08
2.85516e-05
1.96869e-08
2.8552e-05
1.88298e-08
2.85523e-05
1.79154e-08
2.85527e-05
1.70449e-08
2.8553e-05
1.61583e-08
2.85534e-05
1.53056e-08
2.85538e-05
1.44584e-08
2.85541e-05
1.3641e-08
2.85545e-05
1.28465e-08
2.85548e-05
1.20824e-08
2.85552e-05
1.13503e-08
2.85555e-05
1.06477e-08
2.85558e-05
9.98031e-09
2.85561e-05
9.3418e-09
8.75343e-09
2.85564e-05
3.08414e-05
2.02496e-09
3.08408e-05
5.41691e-09
3.084e-05
8.41342e-09
3.08391e-05
1.11804e-08
3.08382e-05
1.38077e-08
3.08374e-05
1.63079e-08
3.08365e-05
1.84169e-08
3.08357e-05
2.02459e-08
3.08349e-05
2.19867e-08
3.08342e-05
2.3171e-08
3.08337e-05
2.42773e-08
3.08332e-05
2.50445e-08
3.08329e-05
2.56294e-08
3.08325e-05
2.59764e-08
3.08322e-05
2.57882e-08
3.08323e-05
2.59257e-08
3.08323e-05
2.56817e-08
3.08325e-05
2.52478e-08
3.08327e-05
2.47428e-08
3.0833e-05
2.41187e-08
3.08334e-05
2.35036e-08
3.08337e-05
2.26837e-08
3.08341e-05
2.18845e-08
3.08345e-05
2.09968e-08
3.08349e-05
2.0161e-08
3.08354e-05
1.92681e-08
3.08358e-05
1.83865e-08
3.08362e-05
1.74783e-08
3.08367e-05
1.6587e-08
3.08372e-05
1.57065e-08
3.08376e-05
1.48475e-08
3.08381e-05
1.40146e-08
3.08385e-05
1.32036e-08
3.08389e-05
1.24269e-08
3.08393e-05
1.16756e-08
3.08397e-05
1.09668e-08
3.08401e-05
1.02897e-08
3.08404e-05
9.64081e-09
3.08407e-05
9.01874e-09
8.44567e-09
3.0841e-05
3.33039e-05
2.17876e-09
3.33034e-05
5.98093e-09
3.33027e-05
9.12124e-09
3.33018e-05
1.20558e-08
3.33009e-05
1.46787e-08
3.33001e-05
1.71196e-08
3.32993e-05
1.9207e-08
3.32986e-05
2.09737e-08
3.3298e-05
2.25878e-08
3.32974e-05
2.37779e-08
3.3297e-05
2.47085e-08
3.32966e-05
2.54158e-08
3.32964e-05
2.58235e-08
3.32963e-05
2.61131e-08
3.32962e-05
2.5886e-08
3.32964e-05
2.57321e-08
3.32966e-05
2.54244e-08
3.3297e-05
2.48867e-08
3.32974e-05
2.42952e-08
3.3298e-05
2.3576e-08
3.32986e-05
2.28972e-08
3.32992e-05
2.20964e-08
3.32997e-05
2.12962e-08
3.33003e-05
2.04399e-08
3.33009e-05
1.95941e-08
3.33014e-05
1.87141e-08
3.3302e-05
1.78256e-08
3.33025e-05
1.69299e-08
3.33031e-05
1.60383e-08
3.33036e-05
1.51633e-08
3.33042e-05
1.42913e-08
3.33047e-05
1.34766e-08
3.33052e-05
1.26864e-08
3.33057e-05
1.19345e-08
3.33062e-05
1.12081e-08
3.33066e-05
1.05199e-08
3.33071e-05
9.85891e-09
3.33075e-05
9.23498e-09
3.33079e-05
8.63888e-09
8.06841e-09
3.33082e-05
3.5963e-05
2.31576e-09
3.59625e-05
6.48972e-09
3.59618e-05
9.80854e-09
3.5961e-05
1.28359e-08
3.59602e-05
1.54626e-08
3.59595e-05
1.78327e-08
3.59589e-05
1.98388e-08
3.59583e-05
2.16098e-08
3.59578e-05
2.30295e-08
3.59574e-05
2.41672e-08
3.59572e-05
2.49448e-08
3.59571e-05
2.54892e-08
3.59572e-05
2.57378e-08
3.59574e-05
2.58608e-08
3.59577e-05
2.56274e-08
3.59582e-05
2.52597e-08
3.59588e-05
2.48439e-08
3.59594e-05
2.42452e-08
3.59601e-05
2.36147e-08
3.59608e-05
2.28871e-08
3.59615e-05
2.22036e-08
3.59621e-05
2.1502e-08
3.59627e-05
2.06965e-08
3.59633e-05
1.98211e-08
3.5964e-05
1.88966e-08
3.59647e-05
1.797e-08
3.59655e-05
1.70738e-08
3.59662e-05
1.62028e-08
3.59669e-05
1.53785e-08
3.59675e-05
1.45579e-08
3.5968e-05
1.37474e-08
3.59685e-05
1.29691e-08
3.5969e-05
1.22125e-08
3.59694e-05
1.14906e-08
3.59698e-05
1.07937e-08
3.59702e-05
1.01316e-08
3.59706e-05
9.49648e-09
3.59709e-05
8.89506e-09
3.59713e-05
8.32112e-09
7.78761e-09
3.59715e-05
3.88347e-05
2.04532e-09
3.88333e-05
7.89092e-09
3.88333e-05
9.83989e-09
3.88323e-05
1.38267e-08
3.88323e-05
1.54764e-08
3.88314e-05
1.87103e-08
3.88313e-05
1.99612e-08
3.88305e-05
2.24188e-08
3.88303e-05
2.32011e-08
3.88298e-05
2.46943e-08
3.88297e-05
2.50241e-08
3.88294e-05
2.57649e-08
3.88295e-05
2.56273e-08
3.88295e-05
2.58567e-08
3.88298e-05
2.53925e-08
3.88299e-05
2.51088e-08
3.88304e-05
2.43951e-08
3.88308e-05
2.38263e-08