/*--------------------------------*- C++ -*----------------------------------*\
| =========                 |                                                 |
| \\      /  F ield         | OpenFOAM: The Open Source CFD Toolbox           |
|  \\    /   O peration     | Version:  2312                                  |
|   \\  /    A nd           | Website:  www.openfoam.com                      |
|    \\/     M anipulation  |                                                 |
\*---------------------------------------------------------------------------*/
FoamFile
{
    version     2.0;
    format      ascii;
    arch        "LSB;label=32;scalar=64";
    class       volVectorField;
    location    "0.5";
    object      U;
}
// * * * * * * * * * * * * * * * * * * * * * * * * * * * * * * * * * * * * * //

dimensions      [0 1 -1 0 0 0 0];

internalField   nonuniform List<vector> 
5600
(
(0.971746 -0.000831295 0)
(1.02741 0.000719493 0)
(0.974364 -0.000713261 0)
(1.02502 0.000597113 0)
(0.976966 -0.000528176 0)
(1.0225 0.00054435 0)
(0.9792 -0.000309679 0)
(1.02007 0.000380838 0)
(0.981337 -0.000438523 0)
(1.01788 0.000226607 0)
(0.983186 -0.000343216 0)
(1.01597 0.000135742 0)
(0.98506 -0.000252065 0)
(1.01413 0.000205659 0)
(0.986516 1.28211e-05 0)
(1.01214 0.000413272 0)
(0.987685 0.000242912 0)
(1.01015 0.000509613 0)
(0.988651 0.000273014 0)
(1.0084 0.000444062 0)
(0.989524 0.000209355 0)
(1.00682 0.000327383 0)
(0.990251 0.000122581 0)
(1.0054 0.000222432 0)
(0.990862 5.65139e-05 0)
(1.00411 0.00015742 0)
(0.991334 2.5889e-05 0)
(1.00289 0.000128383 0)
(0.991678 2.65202e-05 0)
(1.00176 0.000125302 0)
(0.991891 5.84517e-05 0)
(1.00064 0.000181451 0)
(0.991932 0.000189916 0)
(0.999527 0.000386589 0)
(0.991863 0.000496968 0)
(0.998492 0.000766246 0)
(0.991755 0.000956069 0)
(0.997536 0.00132154 0)
(0.991662 0.00169413 0)
(0.997016 0.0022931 0)
(0.987356 -0.000848295 0)
(1.01102 0.000707192 0)
(0.989852 -0.000711155 0)
(1.00917 0.000580361 0)
(0.992051 -0.00050613 0)
(1.00726 0.000528989 0)
(0.993608 -0.000272664 0)
(1.0058 0.000353682 0)
(0.995043 -0.000395919 0)
(1.00428 0.000205318 0)
(0.995854 -0.000307505 0)
(1.00329 9.29982e-05 0)
(0.996812 -0.000205127 0)
(1.00249 0.000193753 0)
(0.997254 9.65779e-05 0)
(1.00149 0.000437253 0)
(0.997426 0.000347664 0)
(1.00049 0.000546454 0)
(0.997514 0.000371858 0)
(0.999709 0.000489488 0)
(0.997537 0.000305758 0)
(0.999054 0.000384103 0)
(0.997433 0.00022256 0)
(0.998482 0.000294765 0)
(0.997257 0.000169992 0)
(0.997955 0.00025061 0)
(0.996994 0.000162202 0)
(0.997419 0.000254943 0)
(0.996662 0.000201956 0)
(0.996893 0.000308124 0)
(0.996283 0.000303872 0)
(0.996357 0.000457677 0)
(0.99586 0.000548032 0)
(0.995834 0.000800251 0)
(0.995437 0.00100931 0)
(0.995353 0.00135541 0)
(0.995081 0.00166073 0)
(0.995061 0.00212424 0)
(0.99508 0.00262307 0)
(0.99545 0.00331932 0)
(0.99693 -0.000760428 0)
(1.00199 0.000596425 0)
(0.997679 -0.000613892 0)
(1.0014 0.000470093 0)
(0.998349 -0.000400857 0)
(1.00073 0.000428796 0)
(0.998603 -0.000186533 0)
(1.00051 0.000246255 0)
(0.999004 -0.000277692 0)
(0.999868 0.000128363 0)
(0.99882 -0.000215536 0)
(0.99953 7.00232e-07 0)
(0.998947 -0.00012573 0)
(0.999408 0.00012792 0)
(0.998777 0.000186064 0)
(0.999034 0.000389136 0)
(0.998525 0.000430108 0)
(0.9986 0.000494084 0)
(0.998299 0.000437424 0)
(0.998268 0.000446394 0)
(0.998081 0.000367553 0)
(0.997942 0.000360005 0)
(0.997784 0.000287234 0)
(0.997613 0.000286696 0)
(0.997445 0.000234384 0)
(0.997249 0.000252606 0)
(0.997039 0.000232083 0)
(0.99682 0.000269751 0)
(0.996592 0.000286972 0)
(0.996372 0.000359189 0)
(0.996131 0.000438638 0)
(0.9959 0.000582815 0)
(0.995657 0.000733592 0)
(0.995438 0.000926673 0)
(0.995208 0.00112157 0)
(0.995018 0.00136581 0)
(0.994854 0.00162954 0)
(0.994791 0.00194831 0)
(0.994855 0.00228451 0)
(0.995191 0.00265116 0)
(0.999554 -0.000751791 0)
(0.999848 0.000584308 0)
(0.99945 -0.000594096 0)
(0.999751 0.000458399 0)
(0.9995 -0.00037354 0)
(0.999554 0.000421183 0)
(0.999397 -0.000166384 0)
(0.999594 0.000224789 0)
(0.999441 -0.000234937 0)
(0.999257 0.000133882 0)
(0.999098 -0.000174711 0)
(0.998942 -8.21962e-06 0)
(0.998857 -0.000103412 0)
(0.998806 0.000135913 0)
(0.99863 0.000230487 0)
(0.998573 0.0004167 0)
(0.998438 0.000478716 0)
(0.998336 0.00052673 0)
(0.998239 0.000487832 0)
(0.998122 0.000486441 0)
(0.998028 0.000420878 0)
(0.997839 0.000412646 0)
(0.997728 0.00035281 0)
(0.99753 0.000359329 0)
(0.997382 0.000324994 0)
(0.997164 0.000356152 0)
(0.996957 0.000358863 0)
(0.996716 0.000416038 0)
(0.996491 0.00046356 0)
(0.996264 0.000561593 0)
(0.996047 0.000673177 0)
(0.995827 0.000842173 0)
(0.995601 0.00101943 0)
(0.995388 0.00122973 0)
(0.995191 0.00144573 0)
(0.995041 0.00170465 0)
(0.994946 0.00198583 0)
(0.994954 0.00231179 0)
(0.995102 0.00265428 0)
(0.995501 0.00301982 0)
(0.999973 -0.00068479 0)
(0.999572 0.000511563 0)
(0.999682 -0.000513422 0)
(0.999544 0.000382231 0)
(0.99962 -0.000293906 0)
(0.999462 0.000345956 0)
(0.99953 -9.74191e-05 0)
(0.999484 0.000150254 0)
(0.999432 -0.00014716 0)
(0.999216 8.45745e-05 0)
(0.999152 -9.30244e-05 0)
(0.998939 -3.82262e-05 0)
(0.998768 -4.10081e-05 0)
(0.998628 0.000113053 0)
(0.998543 0.000260798 0)
(0.99845 0.000405215 0)
(0.998412 0.000491819 0)
(0.998329 0.000518115 0)
(0.99826 0.000510758 0)
(0.998186 0.000495303 0)
(0.998074 0.000455213 0)
(0.99791 0.000445313 0)
(0.997767 0.000397857 0)
(0.997581 0.000408082 0)
(0.997415 0.000393311 0)
(0.997191 0.000426785 0)
(0.996984 0.000455883 0)
(0.996732 0.000523778 0)
(0.99652 0.000605914 0)
(0.996287 0.000730416 0)
(0.996092 0.000872216 0)
(0.995871 0.00103443 0)
(0.995672 0.00120461 0)
(0.995466 0.00139291 0)
(0.995305 0.00159458 0)
(0.995175 0.00181725 0)
(0.995119 0.00205127 0)
(0.995143 0.00229876 0)
(0.995309 0.00254469 0)
(0.995696 0.00278784 0)
(1.00002 -0.00066912 0)
(0.999561 0.000492761 0)
(0.999705 -0.000480175 0)
(0.999527 0.00036056 0)
(0.999626 -0.000259471 0)
(0.999475 0.000320177 0)
(0.999574 -6.22384e-05 0)
(0.999477 0.000132248 0)
(0.999415 -0.00010024 0)
(0.999217 7.62318e-05 0)
(0.999164 -4.93141e-05 0)
(0.998984 -1.8838e-05 0)
(0.998786 6.65262e-06 0)
(0.998572 0.000124165 0)
(0.998526 0.000288135 0)
(0.99843 0.000418856 0)
(0.998415 0.000510039 0)
(0.998351 0.000536615 0)
(0.998277 0.00053651 0)
(0.998238 0.000525737 0)
(0.998117 0.000505829 0)
(0.997968 0.000499628 0)
(0.997816 0.00047092 0)
(0.997624 0.000484568 0)
(0.997463 0.000496907 0)
(0.997229 0.00053931 0)
(0.997037 0.00059887 0)
(0.996783 0.000681881 0)
(0.996598 0.00079609 0)
(0.996375 0.000937785 0)
(0.996201 0.00109883 0)
(0.995981 0.00126011 0)
(0.995801 0.00143201 0)
(0.995608 0.00161035 0)
(0.995476 0.00180358 0)
(0.995368 0.00200472 0)
(0.995342 0.00221284 0)
(0.99539 0.00242212 0)
(0.995584 0.00262817 0)
(0.995991 0.00282939 0)
(1.00002 -0.000606319 0)
(0.999571 0.000425197 0)
(0.99971 -0.000400954 0)
(0.999534 0.000292221 0)
(0.999626 -0.000187206 0)
(0.999489 0.000249684 0)
(0.999586 1.85508e-06 0)
(0.999476 7.75719e-05 0)
(0.999409 -2.62148e-05 0)
(0.999229 4.92675e-05 0)
(0.999167 -2.1269e-06 0)
(0.99899 -1.35358e-05 0)
(0.998832 4.84501e-05 0)
(0.998585 0.000137241 0)
(0.998527 0.000309211 0)
(0.998453 0.000423162 0)
(0.998427 0.000517008 0)
(0.99837 0.000541955 0)
(0.998289 0.000550453 0)
(0.998248 0.000547705 0)
(0.998134 0.000541809 0)
(0.997985 0.000547225 0)
(0.997846 0.000534459 0)
(0.997645 0.000555789 0)
(0.9975 0.000593628 0)
(0.997267 0.00064919 0)
(0.997096 0.000738746 0)
(0.996859 0.000842569 0)
(0.996698 0.00098428 0)
(0.996492 0.001129 0)
(0.99633 0.00128776 0)
(0.996125 0.00144178 0)
(0.995961 0.00161089 0)
(0.99579 0.00178246 0)
(0.995675 0.0019651 0)
(0.995586 0.00214729 0)
(0.995568 0.00232786 0)
(0.995624 0.00249926 0)
(0.995816 0.0026564 0)
(0.996224 0.00279705 0)
(1.00002 -0.000579082 0)
(0.999584 0.000393116 0)
(0.999714 -0.000353669 0)
(0.999548 0.000258636 0)
(0.999627 -0.000142706 0)
(0.999505 0.000213543 0)
(0.999589 4.16911e-05 0)
(0.999479 6.20498e-05 0)
(0.999404 1.69731e-05 0)
(0.999251 4.77482e-05 0)
(0.999182 3.16411e-05 0)
(0.998978 1.46276e-05 0)
(0.998862 9.61696e-05 0)
(0.998624 0.00016259 0)
(0.998539 0.000331916 0)
(0.99849 0.000433153 0)
(0.998449 0.000530764 0)
(0.99839 0.00055667 0)
(0.998311 0.000578315 0)
(0.998249 0.000575028 0)
(0.998147 0.00059523 0)
(0.997988 0.000601225 0)
(0.997867 0.000616236 0)
(0.997664 0.000639444 0)
(0.997534 0.000705224 0)
(0.997317 0.000776104 0)
(0.997164 0.000898535 0)
(0.996955 0.00101958 0)
(0.996809 0.00117384 0)
(0.996621 0.0013149 0)
(0.996468 0.00147692 0)
(0.996286 0.0016302 0)
(0.996137 0.00180171 0)
(0.99599 0.00196357 0)
(0.995886 0.00212913 0)
(0.995811 0.00227654 0)
(0.995795 0.00241318 0)
(0.995848 0.00252647 0)
(0.996024 0.00262443 0)
(0.996406 0.00270808 0)
(1.00002 -0.000518031 0)
(0.999598 0.000328174 0)
(0.999717 -0.000277162 0)
(0.999564 0.000198479 0)
(0.999633 -7.8446e-05 0)
(0.999521 0.000154984 0)
(0.999589 9.47529e-05 0)
(0.999481 2.91166e-05 0)
(0.999405 7.07423e-05 0)
(0.999264 4.78675e-05 0)
(0.999196 6.13717e-05 0)
(0.998982 2.92736e-05 0)
(0.998888 0.000145979 0)
(0.998669 0.000181015 0)
(0.998566 0.000365663 0)
(0.998525 0.00043152 0)
(0.998475 0.000554276 0)
(0.998408 0.000559762 0)
(0.998332 0.000615701 0)
(0.998255 0.000595769 0)
(0.998161 0.000653674 0)
(0.997998 0.000646859 0)
(0.997888 0.000704579 0)
(0.997694 0.000724366 0)
(0.99758 0.000834462 0)
(0.997389 0.000907571 0)
(0.997252 0.0010593 0)
(0.997063 0.00116797 0)
(0.996925 0.00133181 0)
(0.996758 0.0014588 0)
(0.996619 0.00163989 0)
(0.996458 0.00179869 0)
(0.996319 0.00200644 0)
(0.996178 0.00218981 0)
(0.996065 0.00239589 0)
(0.995973 0.00255904 0)
(0.995931 0.00272026 0)
(0.995957 0.00281994 0)
(0.996123 0.00286609 0)
(0.996546 0.0027541 0)
(1.00003 -0.000481028 0)
(0.99961 0.000286316 0)
(0.999726 -0.000220942 0)
(0.999577 0.000158756 0)
(0.999643 -3.03041e-05 0)
(0.999535 0.000120396 0)
(0.999594 0.000131265 0)
(0.999485 2.64621e-05 0)
(0.999416 9.00211e-05 0)
(0.99927 6.28314e-05 0)
(0.999213 9.51792e-05 0)
(0.99899 6.55028e-05 0)
(0.998912 0.000182976 0)
(0.998706 0.000214003 0)
(0.998604 0.000386755 0)
(0.99856 0.000444984 0)
(0.998507 0.000571887 0)
(0.998429 0.000577485 0)
(0.998357 0.000651728 0)
(0.998268 0.000634692 0)
(0.998185 0.00070946 0)
(0.998018 0.000717447 0)
(0.997925 0.000794461 0)
(0.997743 0.000846375 0)
(0.997649 0.00097202 0)
(0.997471 0.0010559 0)
(0.997346 0.00119785 0)
(0.997171 0.00130219 0)
(0.99705 0.00145964 0)
(0.996906 0.00158862 0)
(0.9968 0.00176651 0)
(0.996679 0.00192 0)
(0.996583 0.0021097 0)
(0.996475 0.00226743 0)
(0.99638 0.00244333 0)
(0.996285 0.00258502 0)
(0.996207 0.00273202 0)
(0.996103 0.00282489 0)
(0.995915 0.00286596 0)
(0.995494 0.00274975 0)
(1.00003 -0.000421619 0)
(0.99963 0.000224198 0)
(0.99973 -0.000148019 0)
(0.999596 0.000109856 0)
(0.999652 1.98157e-05 0)
(0.999554 8.44356e-05 0)
(0.999597 0.000147989 0)
(0.999486 5.75486e-05 0)
(0.999428 8.74617e-05 0)
(0.999279 9.20447e-05 0)
(0.999224 0.000107751 0)
(0.999011 0.000108496 0)
(0.998944 0.000203747 0)
(0.998746 0.000262813 0)
(0.998645 0.000399273 0)
(0.998597 0.000477185 0)
(0.998538 0.000579714 0)
(0.998453 0.000611878 0)
(0.99838 0.00067256 0)
(0.998291 0.000694825 0)
(0.998216 0.000753792 0)
(0.998053 0.000811653 0)
(0.997977 0.00088519 0)
(0.997813 0.000977331 0)
(0.997726 0.00108435 0)
(0.997558 0.0011856 0)
(0.997446 0.00130639 0)
(0.997289 0.00142554 0)
(0.997186 0.0015653 0)
(0.99706 0.0016995 0)
(0.996966 0.00184416 0)
(0.996847 0.00196956 0)
(0.996738 0.00208964 0)
(0.996613 0.00218924 0)
(0.99651 0.0022917 0)
(0.996411 0.00238727 0)
(0.996324 0.00248266 0)
(0.996202 0.00255917 0)
(0.996007 0.00262219 0)
(0.995625 0.00266822 0)
(1.00003 -0.000377708 0)
(0.999655 0.000177997 0)
(0.999735 -9.29141e-05 0)
(0.999616 7.6952e-05 0)
(0.999659 5.75332e-05 0)
(0.999572 7.6168e-05 0)
(0.999608 0.000136674 0)
(0.999494 8.91364e-05 0)
(0.999441 0.000105912 0)
(0.999293 0.000120794 0)
(0.999239 0.000135368 0)
(0.999033 0.000153936 0)
(0.998971 0.000233846 0)
(0.998785 0.00030186 0)
(0.998688 0.000421073 0)
(0.998639 0.000499222 0)
(0.998574 0.000600953 0)
(0.998484 0.000644204 0)
(0.998413 0.000706215 0)
(0.998324 0.000760325 0)
(0.998262 0.000819003 0)
(0.998108 0.000912361 0)
(0.998041 0.000990283 0)
(0.997887 0.00108965 0)
(0.997808 0.00118707 0)
(0.997653 0.00129619 0)
(0.997554 0.00141617 0)
(0.997412 0.00153938 0)
(0.997321 0.00166563 0)
(0.997204 0.00177758 0)
(0.997108 0.00188549 0)
(0.996983 0.00197948 0)
(0.996877 0.00207759 0)
(0.996771 0.00217562 0)
(0.996692 0.00228598 0)
(0.996611 0.0023935 0)
(0.996524 0.00249947 0)
(0.996384 0.00258837 0)
(0.996155 0.00266445 0)
(0.99573 0.00272016 0)
(1.00003 -0.000321562 0)
(0.999683 0.000121805 0)
(0.99974 -2.63076e-05 0)
(0.999638 4.41776e-05 0)
(0.999672 7.89003e-05 0)
(0.999588 8.9571e-05 0)
(0.999619 0.000132907 0)
(0.999502 0.000100349 0)
(0.999456 0.000122583 0)
(0.999307 0.000146397 0)
(0.999253 0.000158768 0)
(0.99906 0.000188747 0)
(0.999009 0.000265628 0)
(0.998828 0.000341352 0)
(0.998732 0.00045263 0)
(0.998684 0.000525866 0)
(0.998614 0.000627406 0)
(0.998518 0.000685674 0)
(0.998454 0.000748284 0)
(0.998368 0.000831226 0)
(0.998319 0.000900892 0)
(0.998173 0.00100167 0)
(0.998109 0.0010822 0)
(0.997967 0.00117711 0)
(0.997898 0.00127376 0)
(0.997762 0.00137557 0)
(0.997675 0.00148802 0)
(0.997541 0.00159601 0)
(0.997443 0.00171153 0)
(0.997318 0.0018132 0)
(0.997221 0.00191728 0)
(0.99711 0.00200958 0)
(0.997026 0.00211213 0)
(0.996941 0.0022104 0)
(0.996877 0.00231578 0)
(0.996798 0.00241093 0)
(0.996704 0.00250386 0)
(0.996552 0.00258225 0)
(0.996312 0.00265607 0)
(0.995885 0.00271896 0)
(1.00003 -0.00027447 0)
(0.999715 7.71236e-05 0)
(0.999748 1.13344e-05 0)
(0.999656 4.14432e-05 0)
(0.999689 8.01132e-05 0)
(0.999605 0.000107055 0)
(0.999632 0.000135949 0)
(0.999516 0.000117561 0)
(0.999475 0.000139614 0)
(0.999325 0.000175914 0)
(0.999275 0.000191927 0)
(0.999088 0.000233993 0)
(0.999043 0.000302695 0)
(0.998872 0.00037807 0)
(0.998779 0.000482882 0)
(0.998732 0.000558831 0)
(0.998665 0.000655588 0)
(0.998563 0.000737297 0)
(0.998508 0.000805371 0)
(0.998429 0.000902145 0)
(0.998385 0.000982992 0)
(0.998244 0.0010798 0)
(0.998183 0.00116443 0)
(0.998051 0.0012589 0)
(0.997988 0.00135945 0)
(0.997859 0.00145878 0)
(0.99778 0.001563 0)
(0.997658 0.00165691 0)
(0.997578 0.00175456 0)
(0.997468 0.00184652 0)
(0.99738 0.00194686 0)
(0.997274 0.00204454 0)
(0.997196 0.00214789 0)
(0.997118 0.00224587 0)
(0.997058 0.00234386 0)
(0.996982 0.00243335 0)
(0.996889 0.00251951 0)
(0.996736 0.00259716 0)
(0.996498 0.00267148 0)
(0.996074 0.0027391 0)
(1.00003 -0.000225354 0)
(0.999748 3.47719e-05 0)
(0.999761 3.28225e-05 0)
(0.999675 5.56762e-05 0)
(0.999709 9.22087e-05 0)
(0.999624 0.000119561 0)
(0.999645 0.000149162 0)
(0.999528 0.000136267 0)
(0.999497 0.000152789 0)
(0.999346 0.000197323 0)
(0.999296 0.000220729 0)
(0.999121 0.000269608 0)
(0.999084 0.000339284 0)
(0.998921 0.000417994 0)
(0.998828 0.000520556 0)
(0.998782 0.00060017 0)
(0.998721 0.000695516 0)
(0.998617 0.000790695 0)
(0.998567 0.000872979 0)
(0.998495 0.000962918 0)
(0.998456 0.00104967 0)
(0.998321 0.00114579 0)
(0.998266 0.00123607 0)
(0.998148 0.00133345 0)
(0.998095 0.00143568 0)
(0.997976 0.001536 0)
(0.997898 0.00163432 0)
(0.997773 0.00172018 0)
(0.997688 0.00180415 0)
(0.997584 0.00188333 0)
(0.997514 0.00197155 0)
(0.99743 0.00206361 0)
(0.997371 0.00216266 0)
(0.997303 0.00225858 0)
(0.997249 0.00235257 0)
(0.997175 0.00243904 0)
(0.997083 0.00252121 0)
(0.996932 0.00259631 0)
(0.996695 0.00266745 0)
(0.996272 0.00273249 0)
(1.00003 -0.000180105 0)
(0.999781 -1.05445e-06 0)
(0.999779 4.88241e-05 0)
(0.999694 7.34227e-05 0)
(0.999728 0.000102616 0)
(0.999643 0.000126295 0)
(0.999661 0.000155729 0)
(0.999544 0.000156953 0)
(0.999519 0.000174565 0)
(0.999372 0.000221622 0)
(0.999325 0.000254559 0)
(0.999156 0.000310978 0)
(0.999124 0.000381044 0)
(0.998971 0.000458218 0)
(0.998883 0.000560181 0)
(0.998839 0.000643656 0)
(0.998786 0.000743773 0)
(0.998684 0.000841325 0)
(0.998635 0.000935416 0)
(0.998566 0.00102351 0)
(0.998536 0.00110894 0)
(0.998407 0.00121103 0)
(0.998359 0.00130079 0)
(0.998249 0.00139923 0)
(0.998202 0.00149081 0)
(0.998084 0.00158507 0)
(0.998004 0.00167168 0)
(0.997882 0.00175525 0)
(0.99781 0.00183974 0)
(0.997723 0.00192665 0)
(0.997672 0.00201912 0)
(0.997605 0.00211208 0)
(0.997557 0.00220698 0)
(0.997496 0.00229684 0)
(0.997446 0.0023844 0)
(0.997373 0.00246419 0)
(0.997282 0.00254078 0)
(0.997131 0.00260991 0)
(0.996895 0.00267633 0)
(0.996472 0.00273606 0)
(1.00003 -0.000140039 0)
(0.999814 -2.71747e-05 0)
(0.999802 5.77225e-05 0)
(0.999713 8.87798e-05 0)
(0.999748 0.000116192 0)
(0.999664 0.000139372 0)
(0.99968 0.00016919 0)
(0.99956 0.000177903 0)
(0.999544 0.0001985 0)
(0.999398 0.000246949 0)
(0.999355 0.000285377 0)
(0.999196 0.000347898 0)
(0.999171 0.000422196 0)
(0.999027 0.000501465 0)
(0.998942 0.000610421 0)
(0.998902 0.000692337 0)
(0.998854 0.000797348 0)
(0.998755 0.000893494 0)
(0.998709 0.000987233 0)
(0.998639 0.00108061 0)
(0.998621 0.00116087 0)
(0.9985 0.00126745 0)
(0.998455 0.00135502 0)
(0.998351 0.00145182 0)
(0.998309 0.00153786 0)
(0.9982 0.00162766 0)
(0.998125 0.00171467 0)
(0.998013 0.00180098 0)
(0.99795 0.00189039 0)
(0.997877 0.00197704 0)
(0.997837 0.00206839 0)
(0.997781 0.00215443 0)
(0.997741 0.00224337 0)
(0.997685 0.00232403 0)
(0.997638 0.00240493 0)
(0.997567 0.00247638 0)
(0.997478 0.00254736 0)
(0.997328 0.00260979 0)
(0.997093 0.00267178 0)
(0.996672 0.00272616 0)
(1.00003 -0.000103131 0)
(0.999846 -4.8308e-05 0)
(0.99983 6.28888e-05 0)
(0.999735 0.000105554 0)
(0.999768 0.000132657 0)
(0.999683 0.000154474 0)
(0.999699 0.000181586 0)
(0.99958 0.000198098 0)
(0.999569 0.000221913 0)
(0.999429 0.000273423 0)
(0.999391 0.000318498 0)
(0.999239 0.000387223 0)
(0.999218 0.000466052 0)
(0.999087 0.000543668 0)
(0.999006 0.000661069 0)
(0.998968 0.000742448 0)
(0.998931 0.000843166 0)
(0.998831 0.000945697 0)
(0.998789 0.00103489 0)
(0.99872 0.00113355 0)
(0.998712 0.00121257 0)
(0.998601 0.00131759 0)
(0.998558 0.00140801 0)
(0.99846 0.00150106 0)
(0.99842 0.00158784 0)
(0.998318 0.00167227 0)
(0.99825 0.00175977 0)
(0.99815 0.00184227 0)
(0.998097 0.00193142 0)
(0.998035 0.0020131 0)
(0.998004 0.00210083 0)
(0.997957 0.00217984 0)
(0.997923 0.00226305 0)
(0.997873 0.00233655 0)
(0.997828 0.00241164 0)
(0.997759 0.00247696 0)
(0.997672 0.00254265 0)
(0.997525 0.00259996 0)
(0.997291 0.00265727 0)
(0.996871 0.00270744 0)
(1.00003 -7.28997e-05 0)
(0.999875 -4.96108e-05 0)
(0.999863 5.68782e-05 0)
(0.999757 0.000114724 0)
(0.999788 0.000147078 0)
(0.999704 0.000170894 0)
(0.99972 0.000200263 0)
(0.999601 0.000222769 0)
(0.999598 0.0002481 0)
(0.999462 0.000302709 0)
(0.999428 0.00035282 0)
(0.999288 0.00042528 0)
(0.999272 0.000511383 0)
(0.999154 0.000589949 0)
(0.999076 0.000710147 0)
(0.999036 0.000796785 0)
(0.99901 0.000887421 0)
(0.998912 0.000992998 0)
(0.998874 0.00108372 0)
(0.998807 0.00118108 0)
(0.998807 0.00126206 0)
(0.998708 0.0013598 0)
(0.998666 0.00145378 0)
(0.998573 0.00154174 0)
(0.998536 0.00162853 0)
(0.998445 0.00170799 0)
(0.998384 0.00179548 0)
(0.998294 0.00187552 0)
(0.99825 0.00196276 0)
(0.998196 0.00204103 0)
(0.998174 0.00212403 0)
(0.998134 0.00219855 0)
(0.998107 0.00227553 0)
(0.99806 0.00234454 0)
(0.998019 0.00241336 0)
(0.997951 0.00247474 0)
(0.997866 0.0025345 0)
(0.99772 0.00258831 0)
(0.997489 0.00264008 0)
(0.997069 0.00268721 0)
(1.00003 -5.03825e-05 0)
(0.999899 -3.19977e-05 0)
(0.999892 4.0932e-05 0)
(0.999782 0.000116781 0)
(0.999807 0.000163271 0)
(0.999722 0.000190541 0)
(0.999739 0.000219868 0)
(0.999621 0.000249348 0)
(0.999624 0.000277087 0)
(0.999495 0.000333625 0)
(0.999468 0.000391614 0)
(0.999338 0.000465035 0)
(0.999325 0.000556752 0)
(0.99922 0.000636078 0)
(0.999151 0.00075012 0)
(0.999104 0.000843264 0)
(0.999089 0.00093118 0)
(0.998999 0.00103152 0)
(0.998963 0.00112926 0)
(0.998896 0.00122383 0)
(0.998902 0.00130847 0)
(0.998816 0.00139969 0)
(0.998779 0.00149338 0)
(0.998688 0.00158001 0)
(0.998654 0.00166353 0)
(0.998571 0.00174098 0)
(0.998521 0.00182262 0)
(0.998441 0.00190226 0)
(0.998405 0.00198371 0)
(0.998358 0.00206142 0)
(0.998343 0.0021374 0)
(0.998309 0.00220987 0)
(0.998288 0.00227903 0)
(0.998245 0.00234515 0)
(0.998206 0.00240655 0)
(0.99814 0.00246507 0)
(0.998057 0.0025183 0)
(0.997911 0.00256936 0)
(0.997682 0.00261539 0)
(0.997262 0.00265991 0)
(1.00003 -3.04639e-05 0)
(0.999915 -1.88061e-05 0)
(0.999919 3.72029e-05 0)
(0.999808 0.000116339 0)
(0.999827 0.000174762 0)
(0.99974 0.000209268 0)
(0.999757 0.000242636 0)
(0.99964 0.000278649 0)
(0.99965 0.000310931 0)
(0.999529 0.000368044 0)
(0.999507 0.000431795 0)
(0.999389 0.00050519 0)
(0.999383 0.000597101 0)
(0.999286 0.000681098 0)
(0.999225 0.000789761 0)
(0.999178 0.000881708 0)
(0.999166 0.00097689 0)
(0.999087 0.00106872 0)
(0.999056 0.00116947 0)
(0.99899 0.00126459 0)
(0.999 0.00134931 0)
(0.998925 0.00143851 0)
(0.998894 0.00152556 0)
(0.998805 0.00161298 0)
(0.998773 0.00168978 0)
(0.998697 0.00176735 0)
(0.998659 0.00184127 0)
(0.998589 0.00192059 0)
(0.998563 0.00199562 0)
(0.998522 0.00207243 0)
(0.998513 0.00214215 0)
(0.998482 0.00221205 0)
(0.998466 0.00227477 0)
(0.998425 0.00233728 0)
(0.99839 0.00239279 0)
(0.998324 0.00244759 0)
(0.998242 0.00249585 0)
(0.998098 0.00254337 0)
(0.997869 0.00258519 0)
(0.99745 0.00262637 0)
(1.00003 -1.57391e-05 0)
(0.999928 -3.93362e-06 0)
(0.999941 4.70093e-05 0)
(0.999834 0.000111479 0)
(0.999848 0.00017991 0)
(0.999757 0.000226212 0)
(0.999776 0.000264766 0)
(0.99966 0.000309338 0)
(0.999674 0.000347582 0)
(0.999563 0.000403989 0)
(0.999549 0.00047302 0)
(0.99944 0.000546165 0)
(0.99944 0.000635565 0)
(0.999354 0.000719533 0)
(0.999299 0.000830099 0)
(0.999254 0.0009157 0)
(0.999249 0.00101634 0)
(0.999176 0.0011081 0)
(0.999155 0.0012029 0)
(0.999087 0.00130255 0)
(0.999102 0.00138244 0)
(0.999034 0.00147345 0)
(0.99901 0.00155092 0)
(0.998923 0.00163802 0)
(0.998893 0.00170769 0)
(0.998823 0.00178471 0)
(0.998796 0.00185268 0)
(0.998739 0.00192974 0)
(0.998721 0.00199985 0)
(0.998687 0.00207327 0)
(0.998681 0.00213868 0)
(0.998655 0.00220398 0)
(0.998641 0.00226263 0)
(0.998603 0.00231987 0)
(0.998569 0.0023718 0)
(0.998505 0.00242139 0)
(0.998423 0.00246673 0)
(0.99828 0.00250937 0)
(0.998052 0.00254882 0)
(0.997634 0.00258551 0)
(1.00003 -3.60971e-06 0)
(0.999938 1.07587e-05 0)
(0.999959 5.73024e-05 0)
(0.999856 0.000113572 0)
(0.999871 0.000181543 0)
(0.999776 0.000238899 0)
(0.999795 0.000286956 0)
(0.99968 0.000339521 0)
(0.9997 0.000384974 0)
(0.999597 0.000441757 0)
(0.99959 0.000512649 0)
(0.99949 0.000586717 0)
(0.999498 0.000674685 0)
(0.999425 0.000754425 0)
(0.999374 0.000869065 0)
(0.999331 0.000951808 0)
(0.999336 0.00104746 0)
(0.999264 0.00114649 0)
(0.999256 0.00123165 0)
(0.999188 0.00133468 0)
(0.999205 0.00140827 0)
(0.999142 0.00149942 0)
(0.999124 0.00156942 0)
(0.99904 0.00165212 0)
(0.999012 0.00171842 0)
(0.998951 0.001792 0)
(0.998934 0.0018587 0)
(0.998889 0.0019304 0)
(0.998879 0.00199875 0)
(0.998851 0.00206559 0)
(0.998848 0.00212902 0)
(0.998825 0.00218748 0)
(0.998812 0.00224404 0)
(0.998777 0.0022947 0)
(0.998743 0.0023446 0)
(0.998681 0.00238821 0)
(0.998599 0.00243168 0)
(0.998457 0.00246905 0)
(0.99823 0.00250679 0)
(0.997813 0.0025389 0)
(1.00003 4.65225e-06 0)
(0.999945 2.67774e-05 0)
(0.999973 6.82947e-05 0)
(0.999876 0.000122091 0)
(0.999893 0.000185765 0)
(0.999796 0.000248306 0)
(0.999817 0.000304115 0)
(0.999704 0.000366544 0)
(0.999725 0.000421051 0)
(0.999631 0.000479227 0)
(0.999633 0.000552067 0)
(0.999541 0.00062627 0)
(0.999552 0.000714592 0)
(0.999496 0.000786825 0)
(0.999454 0.00090018 0)
(0.999406 0.000989042 0)
(0.999428 0.00107147 0)
(0.999358 0.00117771 0)
(0.999358 0.00125651 0)
(0.99929 0.00135863 0)
(0.999308 0.0014285 0)
(0.99925 0.00151413 0)
(0.999234 0.00158128 0)
(0.999157 0.00165623 0)
(0.999132 0.00172266 0)
(0.999081 0.00179037 0)
(0.999072 0.00185786 0)
(0.99904 0.00192278 0)
(0.999035 0.00199015 0)
(0.999013 0.00204968 0)
(0.999011 0.00211121 0)
(0.998991 0.00216277 0)
(0.998979 0.00221705 0)
(0.998946 0.00226164 0)
(0.998913 0.00230921 0)
(0.998851 0.00234766 0)
(0.99877 0.00238886 0)
(0.998629 0.00242185 0)
(0.998401 0.00245742 0)
(0.997985 0.00248579 0)
(1.00003 1.16442e-05 0)
(0.999951 4.02081e-05 0)
(0.999984 8.16959e-05 0)
(0.999891 0.000132674 0)
(0.999912 0.000193341 0)
(0.999818 0.000257282 0)
(0.999841 0.000318488 0)
(0.99973 0.000387833 0)
(0.999752 0.000453531 0)
(0.999666 0.000516257 0)
(0.999674 0.000590925 0)
(0.999593 0.000663543 0)
(0.999607 0.000753242 0)
(0.999565 0.000821328 0)
(0.999538 0.000922985 0)
(0.999481 0.00102219 0)
(0.999517 0.00109407 0)
(0.999455 0.00119782 0)
(0.999459 0.0012756 0)
(0.999394 0.00137118 0)
(0.999409 0.00144174 0)
(0.999357 0.00151737 0)
(0.999341 0.00158529 0)
(0.999273 0.00165228 0)
(0.999252 0.00172086 0)
(0.999213 0.0017825 0)
(0.999212 0.00185016 0)
(0.99919 0.00190857 0)
(0.99919 0.0019736 0)
(0.999172 0.00202705 0)
(0.999171 0.00208521 0)
(0.999153 0.00213169 0)
(0.999142 0.00218217 0)
(0.99911 0.00222264 0)
(0.999077 0.00226644 0)
(0.999016 0.00230169 0)
(0.998935 0.00233932 0)
(0.998794 0.00236977 0)
(0.998567 0.00240196 0)
(0.998151 0.00242828 0)
(1.00003 1.69122e-05 0)
(0.999955 5.19552e-05 0)
(0.999993 9.53815e-05 0)
(0.999905 0.000145245 0)
(0.99993 0.000205118 0)
(0.999838 0.000269809 0)
(0.999866 0.000331695 0)
(0.999761 0.000403846 0)
(0.999784 0.000478159 0)
(0.999703 0.000546622 0)
(0.999717 0.000625757 0)
(0.999645 0.000698682 0)
(0.999661 0.000787433 0)
(0.999627 0.000856638 0)
(0.999624 0.00094261 0)
(0.99956 0.00104664 0)
(0.999603 0.0011149 0)
(0.999552 0.00120808 0)
(0.999561 0.00128558 0)
(0.999499 0.00137184 0)
(0.999507 0.00144401 0)
(0.999461 0.00151035 0)
(0.999449 0.00157846 0)
(0.999392 0.00164015 0)
(0.999376 0.00170892 0)
(0.999345 0.00176648 0)
(0.99935 0.001831 0)
(0.999336 0.00188442 0)
(0.999341 0.00194414 0)
(0.999326 0.00199317 0)
(0.999326 0.00204589 0)
(0.999309 0.00208892 0)
(0.999299 0.00213415 0)
(0.999268 0.0021718 0)
(0.999237 0.00221073 0)
(0.999176 0.00224374 0)
(0.999096 0.00227704 0)
(0.998954 0.00230568 0)
(0.998728 0.00233396 0)
(0.998312 0.00235871 0)
(1.00003 2.13315e-05 0)
(0.999958 6.28554e-05 0)
(1 0.000108895 0)
(0.999916 0.000160304 0)
(0.999947 0.000219119 0)
(0.999858 0.000285079 0)
(0.99989 0.000349161 0)
(0.999792 0.00042028 0)
(0.999819 0.000497524 0)
(0.999744 0.000569404 0)
(0.999763 0.000650761 0)
(0.999699 0.000726176 0)
(0.999719 0.000812364 0)
(0.999686 0.000887286 0)
(0.999706 0.000960886 0)
(0.999643 0.00106143 0)
(0.999683 0.00113307 0)
(0.999646 0.00121505 0)
(0.999659 0.0012917 0)
(0.999603 0.00136972 0)
(0.999605 0.0014439 0)
(0.999564 0.00150585 0)
(0.999558 0.0015732 0)
(0.999512 0.00163225 0)
(0.999502 0.00169906 0)
(0.999476 0.00175494 0)
(0.999485 0.00181491 0)
(0.999475 0.00186535 0)
(0.999485 0.00191876 0)
(0.999473 0.0019649 0)
(0.999475 0.00201179 0)
(0.999457 0.00205274 0)
(0.999449 0.00209287 0)
(0.999418 0.00212878 0)
(0.999389 0.0021632 0)
(0.999328 0.00219474 0)
(0.999249 0.00222421 0)
(0.999106 0.00225163 0)
(0.99888 0.00227665 0)
(0.998463 0.00230028 0)
(1.00003 2.45297e-05 0)
(0.99996 7.12946e-05 0)
(1.00001 0.000120598 0)
(0.999927 0.000174506 0)
(0.999962 0.000234464 0)
(0.999877 0.000301291 0)
(0.999914 0.000367984 0)
(0.999823 0.000438843 0)
(0.999855 0.000516795 0)
(0.999786 0.000588633 0)
(0.999812 0.000668511 0)
(0.999755 0.000744946 0)
(0.99978 0.000825623 0)
(0.999746 0.000902894 0)
(0.999783 0.000968067 0)
(0.999729 0.00105564 0)
(0.999766 0.00112814 0)
(0.999737 0.00119905 0)
(0.999758 0.00126963 0)
(0.99971 0.00133833 0)
(0.99971 0.00140952 0)
(0.999671 0.00146911 0)
(0.999671 0.00153207 0)
(0.999635 0.00158825 0)
(0.999631 0.00164928 0)
(0.999608 0.00170327 0)
(0.999619 0.00175742 0)
(0.999611 0.00180516 0)
(0.999626 0.00185193 0)
(0.999615 0.00189478 0)
(0.999621 0.00193578 0)
(0.999603 0.00197399 0)
(0.999597 0.00200942 0)
(0.999566 0.00204297 0)
(0.999539 0.00207351 0)
(0.999478 0.00210291 0)
(0.9994 0.00212926 0)
(0.999256 0.00215488 0)
(0.999031 0.0021775 0)
(0.998613 0.00219967 0)
(1.00003 2.8079e-05 0)
(0.999963 8.01089e-05 0)
(1.00001 0.000132653 0)
(0.999937 0.000188719 0)
(0.999978 0.000249779 0)
(0.999897 0.000316151 0)
(0.999939 0.000385173 0)
(0.999855 0.000455321 0)
(0.999892 0.000533071 0)
(0.999828 0.000606712 0)
(0.99986 0.000684297 0)
(0.999808 0.000762684 0)
(0.99984 0.000840767 0)
(0.999803 0.000921879 0)
(0.999847 0.000988831 0)
(0.999806 0.00106844 0)
(0.999841 0.00114427 0)
(0.999815 0.00121342 0)
(0.999842 0.00128279 0)
(0.999805 0.00134711 0)
(0.999809 0.00141512 0)
(0.999772 0.0014741 0)
(0.999778 0.00153369 0)
(0.999748 0.00158747 0)
(0.999753 0.00164281 0)
(0.999733 0.00169405 0)
(0.999746 0.00174343 0)
(0.999738 0.00178875 0)
(0.999755 0.00183104 0)
(0.999746 0.00187097 0)
(0.999754 0.00190777 0)
(0.999738 0.00194299 0)
(0.999734 0.00197467 0)
(0.999704 0.00200505 0)
(0.999678 0.00203192 0)
(0.999618 0.00205786 0)
(0.999541 0.00208059 0)
(0.999399 0.00210265 0)
(0.999175 0.00212187 0)
(0.998757 0.00214059 0)
(1.00003 2.76937e-05 0)
(0.999965 8.6961e-05 0)
(1.00002 0.000142741 0)
(0.999946 0.000204296 0)
(0.999991 0.000266367 0)
(0.999916 0.000332745 0)
(0.999962 0.000400052 0)
(0.999886 0.000470085 0)
(0.999929 0.000542403 0)
(0.99987 0.000615334 0)
(0.999911 0.000685887 0)
(0.999866 0.000758247 0)
(0.999908 0.000826874 0)
(0.999873 0.000898194 0)
(0.999923 0.000958782 0)
(0.999896 0.00102112 0)
(0.999934 0.00108459 0)
(0.999912 0.00114266 0)
(0.999941 0.0012018 0)
(0.99991 0.00125795 0)
(0.999918 0.00131908 0)
(0.999882 0.00137786 0)
(0.99989 0.0014367 0)
(0.999864 0.00149081 0)
(0.999875 0.00154208 0)
(0.999858 0.00158951 0)
(0.999874 0.00163349 0)
(0.999866 0.00167498 0)
(0.999885 0.00171361 0)
(0.999877 0.00175138 0)
(0.999887 0.001787 0)
(0.999869 0.00182229 0)
(0.999864 0.00185532 0)
(0.999832 0.00188776 0)
(0.999804 0.00191774 0)