/*--------------------------------*- C++ -*----------------------------------*\
| =========                 |                                                 |
| \\      /  F ield         | OpenFOAM: The Open Source CFD Toolbox           |
|  \\    /   O peration     | Version:  2312                                  |
|   \\  /    A nd           | Website:  www.openfoam.com                      |
|    \\/     M anipulation  |                                                 |
\*---------------------------------------------------------------------------*/
FoamFile
{
    version     2.0;
    format      ascii;
    arch        "LSB;label=32;scalar=64";
    class       volScalarField;
    location    "0.55";
    object      p;
}
// * * * * * * * * * * * * * * * * * * * * * * * * * * * * * * * * * * * * * //

dimensions      [0 2 -2 0 0 0 0];

internalField   nonuniform List<scalar> 
5600
(
-1.27415e-08
0.000477309
0.000302964
0.000445024
0.000374112
0.000525806
0.000512226
0.000656182
0.000668746
0.000813627
0.000868394
0.00099584
0.00109043
0.00121685
0.00132165
0.00146168
0.00159001
0.00172501
0.00186418
0.0020186
0.0021792
0.00234902
0.00252724
0.00271804
0.00291508
0.00312598
0.00334268
0.00357033
0.00380288
0.00404981
0.00430905
0.00458837
0.00488225
0.00518718
0.00549038
0.00578191
0.00606905
0.00635063
0.00656411
0.00653441
2.62562e-06
0.000474267
0.000304942
0.000442279
0.00037648
0.000522415
0.000514787
0.000651732
0.000671565
0.00080895
0.000870617
0.000990504
0.00109141
0.00121144
0.00132098
0.00145615
0.00158633
0.00171975
0.00185955
0.00201438
0.00217414
0.00234308
0.00251917
0.00270659
0.00290156
0.00310922
0.00332488
0.00354987
0.00378133
0.00402195
0.00426919
0.0045181
0.00476174
0.005
0.00523424
0.00545463
0.0056352
0.00573317
0.00567736
0.00534361
5.00163e-06
0.000472599
0.000306006
0.000441029
0.000377404
0.000520837
0.000515587
0.000649725
0.000672066
0.000807065
0.000870751
0.000988669
0.00109093
0.00120998
0.00131945
0.00145411
0.00158387
0.00171724
0.00185647
0.00201021
0.00216944
0.00233768
0.00251214
0.00269829
0.00289116
0.00309703
0.00330969
0.00353043
0.00375434
0.00398377
0.00421588
0.00444629
0.0046694
0.00488702
0.00509869
0.00529303
0.00544329
0.00551294
0.00544036
0.00511799
9.00681e-06
0.000468373
0.00030849
0.000437243
0.000380294
0.000516204
0.000518796
0.000644152
0.000675408
0.000801157
0.00087337
0.000982123
0.00109177
0.00120315
0.00131835
0.00144864
0.00157938
0.0017122
0.00185067
0.00200319
0.0021618
0.00232733
0.00250037
0.00268295
0.00287311
0.00307444
0.00328368
0.00349847
0.00371348
0.00392417
0.00412793
0.00432832
0.0045279
0.00472191
0.00489831
0.00503936
0.00512098
0.00510975
0.00495338
0.00455805
1.26324e-05
0.000464549
0.000310549
0.000434587
0.000382264
0.000512747
0.000520329
0.000640119
0.000676354
0.000797494
0.000873294
0.000978805
0.00109052
0.00120014
0.00131482
0.00144479
0.00157442
0.00170624
0.00184385
0.0019952
0.00215214
0.00231545
0.00248583
0.00266514
0.00285118
0.0030469
0.00324856
0.00345218
0.00365261
0.00384661
0.00403174
0.00421217
0.00439107
0.00456182
0.00471026
0.0048195
0.00486938
0.00483248
0.0046629
0.00427274
1.76247e-05
0.000458399
0.000314136
0.000429536
0.000386185
0.000506442
0.000524444
0.000633283
0.000679671
0.000790625
0.000874624
0.00097218
0.00108842
0.00119683
0.00130996
0.00143849
0.00156751
0.00169799
0.00183478
0.0019844
0.00213929
0.00229961
0.00246653
0.00264135
0.00282184
0.00301018
0.00320232
0.00339181
0.00357183
0.00374206
0.00391047
0.00407985
0.00424518
0.00439623
0.00452089
0.00460473
0.00462941
0.00456756
0.00437388
0.00396121
2.25699e-05
0.000451982
0.000317452
0.00042531
0.000389246
0.000500832
0.000526432
0.00062754
0.000680861
0.000785894
0.000873429
0.000968938
0.00108475
0.00119211
0.0013041
0.00143148
0.0015595
0.00168866
0.00182354
0.00197126
0.00212337
0.00227999
0.00244227
0.00261114
0.0027842
0.00296229
0.00314075
0.00331225
0.00347229
0.00362705
0.00378396
0.00394182
0.00409244
0.0042256
0.00433149
0.00439867
0.00441108
0.00434271
0.00414741
0.00373407
2.89047e-05
0.000443073
0.000322401
0.000418744
0.000394429
0.000492727
0.000531053
0.000619556
0.00068176
0.000780055
0.000870947
0.000965919
0.00107958
0.00118572
0.00129672
0.00142308
0.00154926
0.00167713
0.00180927
0.00195474
0.00210353
0.00225578
0.00241188
0.00257278
0.00273534
0.00289955
0.00306058
0.00321205
0.0033574
0.00350298
0.00365041
0.00379587
0.00393162
0.00404974
0.004142
0.00419942
0.00420787
0.00414349
0.00396177
0.00357384
3.55106e-05
0.000433241
0.000327224
0.000412782
0.000398285
0.00048495
0.000532627
0.000613381
0.000681615
0.000776603
0.000866883
0.000960888
0.0010738
0.00117847
0.00128812
0.00141296
0.00153715
0.00166299
0.00179239
0.00193421
0.00207932
0.00222599
0.00237494
0.00252563
0.00267379
0.0028174
0.00295871
0.00309809
0.0032346
0.0033692
0.00350275
0.00363421
0.00376045
0.00387737
0.00397929
0.00405705
0.00409385
0.00405832
0.00388861
0.00346038
4.35607e-05
0.000420746
0.000333417
0.000404937
0.00040442
0.00047543
0.000536342
0.000605252
0.00067737
0.000773461
0.00086291
0.000954042
0.00106732
0.00116946
0.00127794
0.00140057
0.00152283
0.00164532
0.00177228
0.00190897
0.00204961
0.00218816
0.00232636
0.00246217
0.00259346
0.00272455
0.00285615
0.00298498
0.00310786
0.00322235
0.00332733
0.003422
0.00350893
0.00359402
0.00368084
0.00376111
0.00383411
0.00392624
0.00410849
0.00451983
5.21854e-05
0.000406622
0.000339754
0.000397394
0.000408125
0.000466521
0.000535583
0.000602696
0.000673224
0.000768337
0.000856799
0.000946554
0.00105886
0.00115934
0.00126532
0.001386
0.00150581
0.00162427
0.00174764
0.00187888
0.00201249
0.00214048
0.00226219
0.00238267
0.00250512
0.00262908
0.00275091
0.00286578
0.00297178
0.00306998
0.00316452
0.00325985
0.00336068
0.00346473
0.00356219
0.00364875
0.00373455
0.00384702
0.00403921
0.00441131
6.23054e-05
0.000389739
0.00034632
0.00038974
0.000413453
0.0004594
0.000529115
0.000598822
0.000668947
0.000762138
0.000850033
0.000937839
0.00104827
0.00114772
0.00125023
0.00136862
0.00148544
0.00159929
0.00171682
0.00184149
0.00196401
0.00207729
0.00218652
0.00229925
0.00241434
0.0025291
0.00263949
0.00274246
0.00283817
0.00293065
0.00302741
0.00313015
0.00323041
0.00331857
0.0033937
0.00346472
0.00355047
0.00368081
0.00390585
0.00432059
7.31158e-05
0.000371158
0.000352901
0.000381788
0.000413467
0.000456192
0.000522994
0.000593052
0.000663401
0.000755667
0.000842119
0.000927512
0.00103549
0.0011334
0.00123294
0.00134798
0.00146092
0.00156939
0.00167845
0.00179354
0.00190327
0.00200568
0.00210811
0.00221328
0.0023171
0.00241743
0.00251565
0.00261452
0.00271729
0.00282086
0.0029211
0.00301255
0.00309224
0.00316038
0.00322283
0.00329139
0.00338434
0.00352751
0.00376477
0.00418234
8.54353e-05
0.000349237
0.000358094
0.000378791
0.00041097
0.000452504
0.000516927
0.000585452
0.000655022
0.000747198
0.000832779
0.00091568
0.00102065
0.00111636
0.00121241
0.0013237
0.0014307
0.00153167
0.00163015
0.00173331
0.00183511
0.00193153
0.00202776
0.00212639
0.00222493
0.00232062
0.00241261
0.00249985
0.00258475
0.00267142
0.00276354
0.00285347
0.00293217
0.00299733
0.00305678
0.00312393
0.00321688
0.00336048
0.00359679
0.00401129
9.82665e-05
0.000328299
0.000359637
0.000374974
0.000405955
0.000447694
0.000511395
0.000578581
0.00064606
0.000736387
0.000821216
0.000901636
0.00100346
0.00109637
0.00118776
0.00129461
0.00139356
0.00148401
0.00157345
0.00166869
0.00176396
0.0018531
0.00194035
0.00202832
0.00211629
0.00220355
0.0022933
0.00238635
0.00247907
0.0025656
0.00264343
0.00271147
0.00277078
0.00282428
0.00287851
0.00294401
0.0030364
0.00317936
0.00341494
0.00382926
0.000112095
0.000306817
0.000355959
0.000372444
0.000402135
0.000443029
0.000504458
0.000570404
0.000636054
0.000723127
0.000806613
0.000884645
0.000982857
0.00107283
0.00115812
0.00125818
0.00134876
0.00142875
0.00151143
0.00160046
0.00168842
0.00176844
0.00184543
0.0019251
0.00200939
0.00209793
0.0021902
0.00228081
0.00236405
0.00243614
0.00249738
0.00254998
0.00259724
0.00264318
0.00269398
0.00275882
0.00285176
0.00299543
0.00323141
0.00364572
0.000126139
0.000287132
0.000347602
0.000368878
0.000397626
0.000437312
0.000496508
0.000560522
0.000624448
0.000708199
0.00078938
0.000864451
0.000957992
0.00104442
0.00112288
0.00121395
0.00129725
0.00136976
0.00144505
0.00152716
0.00160791
0.00168042
0.00175002
0.00182397
0.00190366
0.00198667
0.00207193
0.00215446
0.00222861
0.00229095
0.00234249
0.00238619
0.00242624
0.00246712
0.00251488
0.00257815
0.0026703
0.00281346
0.00304898
0.00346304
0.000140193
0.0002679
0.000334639
0.000364103
0.000392999
0.000431285
0.000488369
0.000549591
0.000610888
0.000690963
0.000768927
0.000840096
0.000928003
0.00100973
0.0010809
0.00116344
0.0012406
0.00130694
0.0013746
0.00144873
0.00152187
0.0015863
0.00164727
0.00171453
0.00179205
0.00187493
0.00195547
0.00202764
0.00208953
0.00214105
0.00218406
0.00222128
0.00225627
0.00229318
0.00233789
0.00239889
0.00248935
0.00263126
0.00286589
0.00327946
0.000154096
0.000251312
0.000316033
0.000356927
0.000387741
0.00042429
0.000479113
0.000537506
0.000595293
0.000670891
0.000744804
0.000811043
0.000891964
0.000967775
0.00103174
0.00110773
0.00118001
0.0012399
0.00129945
0.00136491
0.00143066
0.00148896
0.00154368
0.00160429
0.00167602
0.00175416
0.00182923
0.00189346
0.00194553
0.00198741
0.00202256
0.00205391
0.00208457
0.00211821
0.00216037
0.00221934
0.00230817
0.0024488
0.00268252
0.00309566
0.000164698
0.000237399
0.000297994
0.000345048
0.000379883
0.000415776
0.000468422
0.00052426
0.000577968
0.000647897
0.000716489
0.000776263
0.000849176
0.00092056
0.000978719
0.00104673
0.00111446
0.00116789
0.00121883
0.00127551
0.00133421
0.00138705
0.00143609
0.00149022
0.00155586
0.00162875
0.00169778
0.00175429
0.00179737
0.00183058
0.00185855
0.00188466
0.00191169
0.00194282
0.00198311
0.00204056
0.00212806
0.00226758
0.0025005
0.00291327
0.000172109
0.000227975
0.000279346
0.000327111
0.000368414
0.000405439
0.000455968
0.000509033
0.000557938
0.000621291
0.000683813
0.000737653
0.00080209
0.000867817
0.000921641
0.000980111
0.00104157
0.00108997
0.00113254
0.00118049
0.00123215
0.00128026
0.00132496
0.00137388
0.00143351
0.00150006
0.00156208
0.0016107
0.00164536
0.00167067
0.00169214
0.00171362
0.00173768
0.00176701
0.0018061
0.00186253
0.00194903
0.00208758
0.0023197
0.00273208
0.000176536
0.000218504
0.000261786
0.00030757
0.000352426
0.000391522
0.000440503
0.000491009
0.000534947
0.000591673
0.000647855
0.000695168
0.000751079
0.00080902
0.000858703
0.00090834
0.000961174
0.00100503
0.00104066
0.00108029
0.00112485
0.0011688
0.00121082
0.00125659
0.00131124
0.0013702
0.00142325
0.00146292
0.00148936
0.00150766
0.00152365
0.00154132
0.00156303
0.00159107
0.00162938
0.00168518
0.00177095
0.00190871
0.00214013
0.00255215
0.000177609
0.000209207
0.00024554
0.000287495
0.000331428
0.000372199
0.000420611
0.000469463
0.000508564
0.000558899
0.00060897
0.000648305
0.000696007
0.000744658
0.000788679
0.000831848
0.000874903
0.000912962
0.000942987
0.000975731
0.00101427
0.0010547
0.00109529
0.00113881
0.00118782
0.00123763
0.00128037
0.00131058
0.00132943
0.00134195
0.00135376
0.00136859
0.00138858
0.00141566
0.00145344
0.00150879
0.00159405
0.00173121
0.0019621
0.00237386
0.000175203
0.000199222
0.000229154
0.000266651
0.000308112
0.000347976
0.000395052
0.000443209
0.000478214
0.000521744
0.000566855
0.000597524
0.000636375
0.000676694
0.00071177
0.000749155
0.00078405
0.000814854
0.000839839
0.000867127
0.000901544
0.000939638
0.000979195
0.00101941
0.00106112
0.00110073
0.001133
0.00115445
0.0011668
0.00117479
0.00118357
0.00119644
0.00121522
0.0012416
0.00127892
0.00133388
0.00141872
0.00155541
0.00178592
0.00219753
0.000169053
0.000187912
0.000212446
0.000245223
0.000283269
0.000319753
0.000362933
0.000410309
0.000442699
0.000479352
0.000520729
0.000543997
0.000572301
0.000605478
0.000630558
0.000660034
0.000688405
0.000712082
0.000732088
0.00075497
0.000787046
0.000824385
0.00086249
0.000897387
0.000929913
0.000958855
0.000981549
0.000995794
0.00100318
0.00100787
0.00101438
0.00102575
0.0010436
0.00106944
0.00110642
0.00116108
0.00124555
0.00138188
0.00161214
0.00202377
0.000159459
0.000174275
0.000194385
0.000222313
0.00025653
0.000289514
0.000326639
0.000369959
0.000400403
0.000430059
0.000467482
0.000487408
0.00050495
0.000531031
0.000547917
0.000566527
0.000588219
0.000606175
0.000621705
0.000640485
0.000670237
0.000706874
0.00074218
0.000770576
0.000793386
0.000812326
0.000826987
0.000836035
0.00084018
0.000842594
0.000847148
0.000856881
0.000873529
0.000898704
0.000935388
0.000989924
0.00107425
0.00121035
0.0014403
0.00185178
0.000146275
0.000157942
0.000174279
0.00019754
0.000227202
0.0002566
0.000287761
0.000324963
0.000352174
0.000374229
0.000405063
0.000424288
0.000434137
0.000452428
0.000463872
0.000472015
0.000485937
0.000499617
0.000511943
0.000526494
0.000551458
0.00058478
0.000616631
0.000639675
0.000654528
0.000665099
0.000673151
0.000678378
0.000680561
0.000681642
0.000684675
0.000692771
0.000708018
0.000732329
0.000768667
0.000823175
0.000907554
0.00104373
0.00127383
0.0016857
0.000129163
0.000138264
0.000151249
0.000170053
0.000194715
0.000220123
0.000245564
0.000275936
0.000299655
0.000315549
0.000337734
0.00035439
0.000358551
0.000367554
0.000374419
0.000374597
0.000378848
0.000386497
0.000395512
0.000406745
0.000426311
0.000454326
0.000481965
0.000501128
0.000510585
0.00051468
0.000516967
0.000518652
0.000519336
0.000519747
0.000521823
0.000528345
0.000541759
0.000564494
0.000599814
0.000653834
0.000738078
0.00087427
0.00110448
0.00151665
0.000108974
0.000115246
0.000124739
0.000139135
0.000158577
0.0001795
0.000199653
0.000222937
0.00024249
0.000254065
0.000267987
0.000280939
0.000282851
0.000284665
0.00028791
0.000285197
0.000282628
0.000283737
0.000288146
0.000295418
0.000308514
0.000328707
0.00035005
0.000365242
0.000371208
0.000370863
0.000368311
0.00036624
0.000365081
0.000365
0.000366814
0.00037242
0.000384229
0.000405109
0.000438845
0.000491723
0.00057512
0.000710504
0.000939814
0.00135096
8.34727e-05
8.8096e-05
9.47897e-05
0.000105385
0.00011964
0.000135627
0.000150428
0.000166095
0.000179636
0.000186247
0.000191234
0.000196381
0.000193307
0.000186185
0.000180765
0.000172521
0.000163399
0.000158212
0.000158871
0.000165141
0.000176374
0.000191819
0.000207808
0.000219554
0.000223813
0.000221554
0.000215932
0.000210217
0.000206208
0.000204825
0.000206856
0.000213657
0.000227163
0.000250011
0.000286032
0.000341562
0.000427958
0.000566513
0.000798999
0.00121329
5.65982e-05
5.56797e-05
5.84946e-05
6.5989e-05
7.7111e-05
8.86785e-05
9.96308e-05
0.000109363
0.000117775
0.000122166
0.000124309
0.000126729
0.000125157
0.000119099
0.000113101
0.000105272
9.45986e-05
8.28994e-05
7.17067e-05
6.15168e-05
5.33201e-05
5.02602e-05
5.49984e-05
6.62361e-05
7.71365e-05
8.16358e-05
7.80218e-05
6.81567e-05
5.51943e-05
4.19649e-05
3.08787e-05
2.41192e-05
2.41164e-05
3.38458e-05
5.75732e-05
0.000102039
0.000178984
0.000309975
0.000537126
0.000948816
2.08974e-05
2.20726e-05
2.2422e-05
2.4964e-05
2.9291e-05
3.35624e-05
3.79395e-05
4.12412e-05
4.1373e-05
3.85005e-05
3.21035e-05
2.37389e-05
1.17385e-05
-4.38944e-06
-2.11629e-05
-3.74541e-05
-5.33129e-05
-6.63886e-05
-7.3598e-05
-7.32904e-05
-6.70282e-05
-5.88273e-05
-5.23293e-05
-4.97599e-05
-5.18772e-05
-5.79906e-05
-6.61857e-05
-7.41052e-05
-7.96145e-05
-8.1286e-05
-7.81927e-05
-6.95119e-05
-5.39485e-05
-2.92618e-05
8.44883e-06
6.58757e-05
0.000154823
0.000296917
0.000534158
0.000954594
-2.39827e-05
-1.80839e-05
-1.58101e-05
-1.49518e-05
-1.45818e-05
-1.6742e-05
-1.848e-05
-1.72519e-05
-1.83063e-05
-2.00249e-05
-2.28208e-05
-2.67759e-05
-3.32393e-05
-4.21907e-05
-5.18408e-05
-6.13881e-05
-7.18997e-05
-8.3374e-05
-9.52269e-05
-0.000106961
-0.000119141
-0.000132288
-0.000146691
-0.000162332
-0.000179493
-0.000198686
-0.000220403
-0.00024483
-0.000272053
-0.00030219
-0.000335667
-0.000373327
-0.000416686
-0.000468222
-0.000532077
-0.000615201
-0.000729713
-0.000897595
-0.00116128
-0.00160933
-6.05259e-05
-6.184e-05
-6.70307e-05
-7.34064e-05
-7.88163e-05
-8.49269e-05
-9.28625e-05
-9.97919e-05
-0.000110594
-0.000125085
-0.000141562
-0.000160132
-0.00018094
-0.000203832
-0.000226355
-0.000246069
-0.000261291
-0.0002709
-0.000274543
-0.000274478
-0.000274348
-0.000277159
-0.00028386
-0.000293428
-0.000303849
-0.000313216
-0.000320269
-0.000324302
-0.000324912
-0.000321759
-0.000314374
-0.000301958
-0.000283129
-0.000255538
-0.000215217
-0.000155398
-6.42247e-05
7.99606e-05
0.000319124
0.000741216
-0.000108834
-0.000110163
-0.000114735
-0.000120444
-0.000125727
-0.000130896
-0.000138502
-0.000145191
-0.0001531
-0.000163087
-0.000173527
-0.000184378
-0.000195777
-0.000208711
-0.000223048
-0.000238346
-0.000254483
-0.000271835
-0.000290832
-0.000311569
-0.000334012
-0.000358112
-0.000384013
-0.000411914
-0.000442051
-0.00047436
-0.000508669
-0.000544796
-0.000582725
-0.000622644
-0.000665046
-0.000710796
-0.000761352
-0.000819101
-0.000888036
-0.000974934
-0.00109166
-0.0012599
-0.0015216
-0.00196473
-0.000160468
-0.000165453
-0.00017601
-0.000189376
-0.000204283
-0.0002188
-0.000236064
-0.000254762
-0.000274362
-0.000296551
-0.000321006
-0.000346005
-0.000370144
-0.000392955
-0.00041322
-0.000428633
-0.000437769
-0.000442322
-0.000446208
-0.000452449
-0.000461943
-0.000473781
-0.000486467
-0.000498468
-0.000508677
-0.000516374
-0.000521171
-0.00052286
-0.00052135
-0.000516486
-0.000507898
-0.000494791
-0.000475731
-0.000448281
-0.000408397
-0.000349261
-0.000259003
-0.000115975
0.000121767
0.000542175
-0.000211866
-0.00021541
-0.000222924
-0.000231927
-0.000242677
-0.000253045
-0.000264871
-0.000278717
-0.000292724
-0.000307157
-0.000323354
-0.000340276
-0.00035692
-0.000373789
-0.000392038
-0.000411644
-0.00043216
-0.000453531
-0.000476343
-0.000500997
-0.000527501
-0.000555589
-0.000585187
-0.000616438
-0.00064942
-0.000684017
-0.000720022
-0.000757252
-0.000795712
-0.000835649
-0.00087762
-0.000922555
-0.000971951
-0.00102823
-0.00109541
-0.00118028
-0.00129474
-0.00146045
-0.00171941
-0.0021596
-0.000278946
-0.000286619
-0.000301587
-0.000320271
-0.000342262
-0.000365204
-0.000389697
-0.000416126
-0.000442897
-0.000469104
-0.000494962
-0.000518564
-0.000538012
-0.000552314
-0.000562212
-0.000569808
-0.000577238
-0.000585992
-0.000596649
-0.000608812
-0.000621502
-0.000633612
-0.000644266
-0.000652862
-0.000659181
-0.000663196
-0.00066494
-0.000664405
-0.00066148
-0.000655873
-0.000647029
-0.000634006
-0.000615273
-0.000588362
-0.00054922
-0.000491033
-0.000401927
-0.000260247
-2.40434e-05
0.000394644
-0.000324434
-0.000327587
-0.000336048
-0.000347281
-0.000361619
-0.000377101
-0.000393712
-0.000412025
-0.00043128
-0.000450907
-0.000472328
-0.000494302
-0.000514854
-0.000533618
-0.000551462
-0.000568752
-0.000585651
-0.000602553
-0.000620191
-0.000638969
-0.000658954
-0.000680042
-0.000702352
-0.000726132
-0.000751536
-0.000778517
-0.000806978
-0.000836867
-0.000868327
-0.000901693
-0.000937577
-0.000976919
-0.00102123
-0.00107294
-0.00113608
-0.00121748
-0.00132906
-0.00149253
-0.00174992
-0.00218933
-0.000410288
-0.000418693
-0.000436076
-0.000459219
-0.000487244
-0.000516851
-0.000547736
-0.00057827
-0.000605887
-0.000630131
-0.000651916
-0.000669305
-0.000682826
-0.000693793
-0.000703004
-0.000710096
-0.000715219
-0.000719096
-0.000722307
-0.000724719
-0.000725953
-0.00072582
-0.000724452
-0.000721928
-0.000718199
-0.000713094
-0.000706507
-0.00069838
-0.000688671
-0.000677158
-0.000663322
-0.000646192
-0.000624207
-0.000594867
-0.000554138
-0.000495246
-0.000406393
-0.000266019
-3.23254e-05
0.000382412
0.00629664
0.00636911
0.0066471
0.00682205
0.00681594
0.00663414
0.00633646
0.00599362
0.00565783
0.00535742
0.00510328
0.00489506
0.00472477
0.00458126
0.00445384
0.00433407
0.00421633
0.00409744
0.00397612
0.0038523
0.00372669
0.00360041
0.00347465
0.00335051
0.00322872
0.00310962
0.00299302
0.0028785
0.00276517
0.00265227
0.00253871
0.00242397
0.00230713
0.00218794
0.00206564
0.00193984
0.00180944
0.00167367
0.00153118
0.00138145
0.00122353
0.00105707
0.000881079
0.000695339
0.000499317
0.000292222
7.52492e-05
-0.000153353
-0.000396118
-0.00066823
-0.000977298
-0.00132602
-0.0017368
-0.00225667
-0.00286465
-0.003468
-0.00407286
-0.00477126
-0.00557174
-0.00635852
-0.00695906
-0.00727896
-0.0073128
-0.00704747
-0.00662437
-0.00619732
-0.00580161
-0.00551045
-0.00534111
-0.0052265
-0.00521081
-0.00524741
-0.00528438
-0.00537114
-0.00545737
-0.00553036
-0.00564115
-0.00573906
-0.00581981
-0.0059316
-0.00604345
-0.00612429
-0.00620484
-0.00629389
-0.00636625
-0.00642712
-0.00648163
-0.0065261
-0.00656812
-0.00660837
-0.00663937
-0.00667026
-0.00670883
-0.00674995
-0.00679405
-0.00684246
-0.00689352
-0.00694647
-0.00699975
-0.00705021
0.00497238
0.00504586
0.00549753
0.005938
0.00620238
0.00625091
0.00610842
0.00584706
0.00554352
0.00525141
0.00499779
0.00479121
0.00462801
0.00449644
0.00438283
0.00427569
0.00416771
0.00405533
0.00393794
0.00381647
0.00369261
0.00356797
0.00344388
0.00332132
0.00320092
0.00308307
0.0029676
0.00285409
0.00274157
0.00262928
0.00251614
0.00240168
0.00228495
0.00216571
0.00204329
0.0019175
0.00178727
0.00165179
0.0015097
0.00136043
0.00120299
0.00103718
0.000861733
0.000676705
0.000481248
0.000274735
5.82589e-05
-0.000170218
-0.000412743
-0.000684622
-0.000993887
-0.00134186
-0.00174868
-0.00226393
-0.00286813
-0.00346545
-0.00406324
-0.00475385
-0.00554534
-0.00632547
-0.00692217
-0.00724322
-0.0072843
-0.00702489
-0.00660652
-0.0061843
-0.00579055
-0.00550126
-0.00533406
-0.00521975
-0.00520454
-0.00524189
-0.00527911
-0.00536641
-0.00545312
-0.0055265
-0.00563785
-0.00573617
-0.00581731
-0.00592954
-0.00604175
-0.00612294
-0.0062038
-0.00629308
-0.00636562
-0.00642673
-0.00648137
-0.00652592
-0.006568
-0.00660831
-0.00663936
-0.00667025
-0.00670882
-0.00674994
-0.00679403
-0.00684245
-0.00689352
-0.00694647
-0.00699973
-0.00705019
0.00478089
0.00488566
0.00537924
0.0058647
0.00617011
0.00625167
0.00612991
0.00587563
0.00556836
0.00526656
0.00500157
0.00478462
0.00461413
0.004479
0.00436479
0.00425859
0.00415169
0.00403962
0.00392143
0.0037982
0.00367212
0.00354534
0.00341949
0.00329556
0.00317412
0.00305544
0.00293937
0.00282539
0.00271245
0.00259967
0.00248596
0.0023709
0.00225366
0.00213406
0.00201116
0.00188454
0.00175338
0.00161715
0.00147468
0.00132533
0.00116817
0.00100281
0.000828173
0.000643826
0.000449278
0.000243327
2.6967e-05
-0.000202528
-0.000447312
-0.00071968
-0.00102897
-0.0013778
-0.00178038
-0.002282
-0.0028702
-0.00345736
-0.00404639
-0.004718
-0.00547841
-0.00622713
-0.00680594
-0.00712956
-0.00719104
-0.00696171
-0.00656963
-0.00616816
-0.00578943
-0.00550639
-0.00534062
-0.00522664
-0.00521033
-0.0052461
-0.00528174
-0.00536797
-0.00545388
-0.00552633
-0.0056372
-0.00573526
-0.00581589
-0.00592781
-0.00603995
-0.00612097
-0.00620181
-0.00629125
-0.00636395
-0.00642516
-0.00648006
-0.00652485
-0.00656715
-0.00660766
-0.00663887
-0.00666991
-0.00670862
-0.00674982
-0.00679398
-0.00684243
-0.00689352
-0.00694651
-0.00699984
-0.00705025
0.00418422
0.00426817
0.00475663
0.00526319
0.00561278
0.00575704
0.00570677
0.00552071
0.00527049
0.00501251
0.00477962
0.0045855
0.0044318
0.00431097
0.00421089
0.00411934
0.00402714
0.00392885
0.0038226
0.00370897
0.00359021
0.00346904
0.00334782
0.00322812
0.00311066
0.00299575
0.00288311
0.00277226
0.00266204
0.00255155
0.00243959
0.0023258
0.00220942
0.00209041
0.00196798
0.00184193
0.00171146
0.00157609
0.00143456
0.00128634
0.00113017
0.00096604
0.00079247
0.000609281
0.000415718
0.000210404
-5.84286e-06
-0.000236265
-0.00048279
-0.000755342
-0.00106397
-0.00141316
-0.00181031
-0.00229674
-0.00286835
-0.00344552
-0.00402267
-0.00467147
-0.00539973
-0.00611667
-0.00667771
-0.00700135
-0.00708347
-0.00688589
-0.00652031
-0.00613975
-0.00577432
-0.00549794
-0.00533642
-0.00522343
-0.00520628
-0.00524183
-0.00527678
-0.00536212
-0.00544813
-0.00552065
-0.0056312
-0.00572957
-0.00581076
-0.0059226
-0.00603472
-0.0061163
-0.0061976
-0.00628726
-0.00636027
-0.00642205
-0.00647746
-0.00652267
-0.0065653
-0.00660618
-0.00663775
-0.00666909
-0.00670798
-0.00674933
-0.0067936
-0.00684216
-0.00689335
-0.00694641
-0.00699987
-0.00705029
0.003918
0.00402072
0.00453453
0.00506942
0.00544818
0.00562112
0.00559718
0.0054331
0.00519949
0.00495294
0.00472729
0.00453735
0.00438603
0.00426717
0.0041696
0.00408135
0.00399293
0.00389832
0.00379506
0.00368331
0.0035652
0.00344371
0.00332171
0.00320127
0.0030834
0.00296836
0.00285565
0.00274461
0.00263406
0.00252308
0.00241043
0.00229573
0.00217834
0.00205832
0.00193505
0.00180835
0.00167742
0.00154165
0.00139993
0.00125159
0.00109556
0.0009316
0.000758445
0.000575687
0.000382562
0.000177541
-3.89502e-05
-0.000269992
-0.000518029
-0.000791045
-0.00109893
-0.00144773
-0.00183957
-0.00231169
-0.00286644
-0.00343154
-0.00399504
-0.00462037
-0.00531644
-0.00599964
-0.00653883
-0.00685896
-0.00695799
-0.00679352
-0.0064599
-0.0061053
-0.00575944
-0.00549434
-0.00533779
-0.00522669
-0.00520883
-0.00524352
-0.00527682
-0.00536065
-0.00544616
-0.00551747
-0.00562705
-0.00572546
-0.00580613
-0.00591716
-0.00602909
-0.00611071
-0.00619208
-0.00628182
-0.00635508
-0.00641722
-0.00647319
-0.00651898
-0.00656213
-0.00660352
-0.00663566
-0.00666749
-0.00670678
-0.00674843
-0.00679294
-0.00684168
-0.00689302
-0.00694626
-0.00699994
-0.00705037
0.00359138
0.00368563
0.00419505
0.00473084
0.00511535
0.0052984
0.00528786
0.00513921
0.00492215
0.00469275
0.00448449
0.00431183
0.00417729
0.0040743
0.00399138
0.00391644
0.00384
0.00375621
0.00366273
0.00355986
0.00344979
0.00333562
0.00322033
0.00310619
0.00299427
0.00288484
0.00277719
0.00267052
0.00256363
0.00245578
0.00234589
0.00223363
0.00211837
0.00200017
0.00187855
0.00175338
0.00162396
0.00148973
0.00134945
0.00120267
0.00104808
0.000885682
0.000714054
0.000532723
0.000341005
0.000137092
-7.87622e-05
-0.000309703
-0.000558265
-0.000831344
-0.00113715
-0.00148406
-0.00187086
-0.00232854
-0.00286436
-0.00341523
-0.00396454
-0.00456667
-0.00523045
-0.00587902
-0.00639714
-0.00671442
-0.00683088
-0.00670168
-0.0064
-0.00607096
-0.00574362
-0.00548789
-0.00533607
-0.005226
-0.00520654
-0.00524045
-0.00527254
-0.0053547
-0.00544005
-0.00551096
-0.00561961
-0.00571822
-0.0057992
-0.00590968
-0.00602136
-0.00610343
-0.00618511
-0.00627503
-0.00634863
-0.0064114
-0.00646812
-0.00651457
-0.00655825
-0.00660023
-0.00663305
-0.00666547
-0.00670518
-0.00674716
-0.00679194
-0.00684093
-0.00689248
-0.00694591
-0.00699984
-0.00705038
0.00336187
0.00345599
0.00396439
0.00449585
0.0048744
0.00505204
0.00503951
0.00489499
0.00468913
0.00447729
0.00429138
0.00414359
0.00403386
0.00395296
0.00388771
0.00382571
0.00375823
0.00368065
0.00359181
0.00349304
0.00338723
0.00327765
0.00316711
0.00305751
0.00294964
0.00284348
0.0027382
0.00263297
0.00252676
0.00241905
0.00230912
0.00219674
0.00208136
0.00196293
0.00184104
0.00171557
0.00158594
0.0014516
0.00131129
0.00116457
0.00101016
0.000848112
0.00067689
0.000496081
0.000304788
0.000101385
-0.000114543
-0.00034567
-0.000594806
-0.000868077
-0.00117168
-0.00151634
-0.0018982
-0.00234144
-0.00285785
-0.00339419
-0.00392966
-0.00450825
-0.0051393
-0.00575449
-0.00625231
-0.00656604
-0.00669706
-0.00660025
-0.00633077
-0.00602866
-0.00572186
-0.00547801
-0.00533231
-0.00522451
-0.00520458
-0.00523878
-0.00526986
-0.00535057
-0.00543593
-0.00550592
-0.00561354
-0.00571245
-0.00579309
-0.00590264
-0.00601415
-0.00609637
-0.00617805
-0.00626807
-0.00634201
-0.00640521
-0.00646257
-0.00650971
-0.00655397
-0.00659657
-0.00663008
-0.00666314
-0.00670335
-0.00674573
-0.00679084
-0.00684009
-0.00689188
-0.00694556
-0.00699979
-0.00705042
0.00322581
0.00334189
0.00386592
0.0043909
0.00474356
0.00488098
0.0048251
0.00464798
0.0044276
0.00421801
0.00404527
0.00391702
0.00382844
0.00376627
0.00371526
0.00366298
0.0036019
0.00352894
0.00344433
0.00335056
0.00325106
0.00314904
0.00304675
0.00294539
0.00284515
0.00274559
0.00264579
0.00254501
0.00244246
0.00233787
0.00223082
0.0021212
0.00200854
0.0018927
0.00177323
0.00165002
0.00152241
0.0013901
0.00125169
0.00110689
0.000954334
0.000794123
0.000624783
0.00044569
0.000256116
5.41977e-05
-0.000160511
-0.000390826
-0.000639185
-0.000911507
-0.00121204
-0.00155255
-0.00192838
-0.00235724
-0.00285371
-0.00337401
-0.00389424
-0.00444828
-0.00504741
-0.00563018
-0.00610736
-0.00641661
-0.00655998
-0.00649581
-0.00626045
-0.00598605
-0.00570045
-0.00546846
-0.00532888
-0.00522374
-0.00520282
-0.00523634
-0.00526645
-0.0053453
-0.00543009
-0.00549941
-0.00560581
-0.00570477
-0.00578551
-0.00589427
-0.00600545
-0.00608802
-0.00616996
-0.00626016
-0.00633444
-0.00639825
-0.00645643
-0.00650435
-0.00654923
-0.00659251
-0.00662681
-0.00666058
-0.00670132
-0.00674411
-0.00678956
-0.0068391
-0.00689117
-0.0069451
-0.00699962
-0.0070504
0.00303706
0.00309015
0.00354022
0.00400026
0.00431186
0.00444046
0.00440887
0.00427901
0.00411468
0.00395884
0.00383144
0.00373681
0.00366874
0.00361558
0.00356643
0.00351393
0.00345411
0.00338563
0.00330907
0.00322612
0.00313883
0.00304897
0.00295771
0.0028656
0.0027726
0.00267846
0.00258265
0.00248485
0.00238467
0.00228206
0.00217673
0.00206869
0.00195748
0.00184296
0.00172458
0.00160228
0.00147531
0.00134363
0.00120577
0.00106168
0.000909803
0.000750383
0.000581837
0.00040364
0.000214907
1.38735e-05
-0.000200142
-0.000430044
-0.000677566
-0.000949078
-0.00124653
-0.00158223
-0.00195201
-0.00236749
-0.00284387
-0.003347
-0.00385171
-0.00438204
-0.0049501
-0.00550118
-0.00595806
-0.00626242
-0.00641684
-0.00638371
-0.00618194
-0.00593574
-0.00567231
-0.0054537
-0.00532165
-0.0052198
-0.00519834
-0.00523221
-0.00526159
-0.00533874
-0.00542377
-0.00549243
-0.00559766
-0.00569708
-0.00577784
-0.00588571
-0.00599672
-0.00607962
-0.00616164
-0.00625199
-0.00632669
-0.00639106
-0.00645
-0.00649872
-0.00654426
-0.00658822
-0.00662335
-0.00665785
-0.00669917
-0.00674241
-0.00678824
-0.00683809
-0.00689043
-0.00694465
-0.00699951
-0.00705041
0.00491365
0.00483292
0.00434459
0.00383831
0.00347433