/*--------------------------------*- C++ -*----------------------------------*\
| =========                 |                                                 |
| \\      /  F ield         | OpenFOAM: The Open Source CFD Toolbox           |
|  \\    /   O peration     | Version:  2312                                  |
|   \\  /    A nd           | Website:  www.openfoam.com                      |
|    \\/     M anipulation  |                                                 |
\*---------------------------------------------------------------------------*/
FoamFile
{
    version     2.0;
    format      ascii;
    arch        "LSB;label=32;scalar=64";
    class       surfaceScalarField;
    location    "0.55";
    object      phi;
}
// * * * * * * * * * * * * * * * * * * * * * * * * * * * * * * * * * * * * * //

dimensions      [0 3 -1 0 0 0 0];

oriented        oriented;

internalField   nonuniform List<scalar> 
11020
(
3.87757e-06
-6.60612e-08
3.87732e-06
5.33621e-08
3.87763e-06
-4.82007e-08
3.87778e-06
3.63538e-08
3.87741e-06
-2.71993e-08
3.87781e-06
2.46439e-08
3.87731e-06
-2.15613e-08
3.87731e-06
1.75886e-08
3.87661e-06
-1.09237e-08
3.87688e-06
1.2079e-08
3.87618e-06
-8.2318e-09
3.87639e-06
6.81519e-09
3.87562e-06
-5.90561e-09
3.87571e-06
4.33015e-09
3.87476e-06
-2.59161e-09
3.87452e-06
5.40023e-09
3.87361e-06
1.12524e-09
3.87329e-06
6.1989e-09
3.87248e-06
2.51867e-09
3.87213e-06
5.72631e-09
3.87138e-06
2.63316e-09
3.87093e-06
4.92924e-09
3.87017e-06
2.61261e-09
3.86959e-06
4.42318e-09
3.86878e-06
2.81595e-09
3.86807e-06
4.20413e-09
3.86721e-06
3.05805e-09
3.86642e-06
4.06754e-09
3.86549e-06
3.22764e-09
3.86457e-06
3.97898e-09
3.86348e-06
3.46536e-09
3.86228e-06
4.2187e-09
3.86085e-06
4.21111e-09
3.85925e-06
5.25636e-09
3.85742e-06
5.73874e-09
3.85542e-06
6.89877e-09
3.85319e-06
7.56277e-09
3.85073e-06
8.86706e-09
3.84799e-06
1.00391e-08
1.18311e-08
3.84498e-06
4.18302e-06
-6.32246e-08
4.18759e-06
4.87937e-08
4.18398e-06
-4.45907e-08
4.18806e-06
3.22706e-08
4.18447e-06
-2.36027e-08
4.18826e-06
2.08524e-08
4.18469e-06
-1.79964e-08
4.18719e-06
1.50973e-08
4.18423e-06
-7.97161e-09
4.18673e-06
9.58447e-09
4.18414e-06
-5.64407e-09
4.18606e-06
4.8984e-09
4.18377e-06
-3.62272e-09
4.18506e-06
3.0466e-09
4.18282e-06
-3.51986e-10
4.18335e-06
4.8644e-09
4.18157e-06
2.90861e-09
4.18192e-06
5.85165e-09
4.18062e-06
3.8151e-09
4.18079e-06
5.55824e-09
4.17964e-06
3.77991e-09
4.17956e-06
5.01486e-09
4.17845e-06
3.72412e-09
4.17811e-06
4.75518e-09
4.17702e-06
3.91343e-09
4.17648e-06
4.73883e-09
4.17535e-06
4.1886e-09
4.17461e-06
4.80992e-09
4.17336e-06
4.47449e-09
4.17233e-06
5.01314e-09
4.17083e-06
4.96434e-09
4.16942e-06
5.62563e-09
4.16769e-06
5.93853e-09
4.16618e-06
6.76715e-09
4.16461e-06
7.31642e-09
4.1633e-06
8.20579e-09
4.162e-06
8.85815e-09
4.16107e-06
9.80313e-09
4.16045e-06
1.06531e-08
1.17263e-08
4.16056e-06
4.51656e-06
-5.97178e-08
4.52079e-06
4.45572e-08
4.51683e-06
-4.06282e-08
4.52029e-06
2.88105e-08
4.5171e-06
-2.04171e-08
4.5203e-06
1.76527e-08
4.51696e-06
-1.46487e-08
4.51882e-06
1.32326e-08
4.51635e-06
-5.503e-09
4.5184e-06
7.54117e-09
4.51623e-06
-3.47988e-09
4.51766e-06
3.4694e-09
4.51574e-06
-1.7055e-09
4.51652e-06
2.26778e-09
4.51458e-06
1.59114e-09
4.51469e-06
4.75533e-09
4.51316e-06
4.43815e-09
4.51322e-06
5.79119e-09
4.51211e-06
4.91935e-09
4.51212e-06
5.55417e-09
4.51119e-06
4.70834e-09
4.511e-06
5.20784e-09
4.51005e-06
4.67603e-09
4.50963e-06
5.17236e-09
4.50863e-06
4.90933e-09
4.50802e-06
5.34942e-09
4.50695e-06
5.26439e-09
4.50614e-06
5.61067e-09
4.50497e-06
5.65415e-09
4.50386e-06
6.11407e-09
4.50233e-06
6.49536e-09
4.50082e-06
7.1435e-09
4.49906e-06
7.69442e-09
4.49752e-06
8.30375e-09
4.49602e-06
8.82338e-09
4.49479e-06
9.4339e-09
4.49361e-06
1.00329e-08
4.49272e-06
1.06954e-08
4.49207e-06
1.13023e-08
1.1862e-08
4.49194e-06
4.87784e-06
-5.66075e-08
4.8812e-06
4.11917e-08
4.87754e-06
-3.69694e-08
4.88032e-06
2.60309e-08
4.87751e-06
-1.76065e-08
4.88008e-06
1.50818e-08
4.87713e-06
-1.16927e-08
4.87868e-06
1.16784e-08
4.87637e-06
-3.19442e-09
4.87796e-06
5.95113e-09
4.87615e-06
-1.66769e-09
4.87696e-06
2.65671e-09
4.87538e-06
-1.24821e-10
4.8755e-06
2.15178e-09
4.87431e-06
2.77621e-09
4.87391e-06
5.15961e-09
4.87307e-06
5.28329e-09
4.87264e-06
6.21864e-09
4.87185e-06
5.70456e-09
4.87135e-06
6.05723e-09
4.87059e-06
5.4642e-09
4.87e-06
5.80291e-09
4.8692e-06
5.47271e-09
4.86849e-06
5.88026e-09
4.86763e-06
5.77083e-09
4.86679e-06
6.18806e-09
4.86576e-06
6.29425e-09
4.86464e-06
6.73313e-09
4.86327e-06
7.02322e-09
4.8619e-06
7.48719e-09
4.86043e-06
7.96803e-09
4.85902e-06
8.55273e-09
4.85764e-06
9.07489e-09
4.85637e-06
9.57001e-09
4.85519e-06
1.00007e-08
4.85421e-06
1.04205e-08
4.85342e-06
1.0818e-08
4.85293e-06
1.11885e-08
4.85274e-06
1.14953e-08
1.16981e-08
4.8529e-06
5.26757e-06
-5.3532e-08
5.27081e-06
3.79521e-08
5.26708e-06
-3.32396e-08
5.26991e-06
2.32027e-08
5.26699e-06
-1.46874e-08
5.26939e-06
1.26769e-08
5.26653e-06
-8.82558e-09
5.26833e-06
9.88074e-09
5.26576e-06
-6.25669e-10
5.26712e-06
4.58672e-09
5.26542e-06
3.62425e-11
5.26604e-06
2.03801e-09
5.26437e-06
1.53636e-09
5.26423e-06
2.29498e-09
5.26326e-06
3.74979e-09
5.26284e-06
5.57817e-09
5.2621e-06
6.0189e-09
5.26172e-06
6.60395e-09
5.26095e-06
6.46841e-09
5.26039e-06
6.61719e-09
5.25953e-06
6.33036e-09
5.2588e-06
6.53479e-09
5.25785e-06
6.42121e-09
5.25698e-06
6.74456e-09
5.25599e-06
6.76786e-09
5.25504e-06
7.13444e-09
5.25398e-06
7.35243e-09
5.25293e-06
7.78807e-09
5.25164e-06
8.31493e-09
5.25019e-06
8.93738e-09
5.24861e-06
9.54191e-09
5.24716e-06
1.00057e-08
5.24583e-06
1.0402e-08
5.24471e-06
1.06902e-08
5.24372e-06
1.09948e-08
5.2429e-06
1.12343e-08
5.24226e-06
1.14661e-08
5.24184e-06
1.16002e-08
5.24166e-06
1.16753e-08
1.16513e-08
5.24171e-06
5.68824e-06
-5.03131e-08
5.6916e-06
3.45927e-08
5.6877e-06
-2.93408e-08
5.69066e-06
2.02467e-08
5.68766e-06
-1.16878e-08
5.68992e-06
1.04168e-08
5.68713e-06
-6.03352e-09
5.68902e-06
7.98513e-09
5.68657e-06
1.82401e-09
5.68735e-06
3.80685e-09
5.68611e-06
1.28183e-09
5.68625e-06
1.89305e-09
5.68513e-06
2.66117e-09
5.68444e-06
2.98198e-09
5.6835e-06
4.68988e-09
5.683e-06
6.07501e-09
5.68236e-06
6.65971e-09
5.68192e-06
7.04789e-09
5.68124e-06
7.14208e-09
5.68061e-06
7.24693e-09
5.67976e-06
7.18315e-09
5.67892e-06
7.37363e-09
5.67792e-06
7.42316e-09
5.67691e-06
7.75308e-09
5.67581e-06
7.87419e-09
5.67467e-06
8.26916e-09
5.67337e-06
8.6504e-09
5.67199e-06
9.17215e-09
5.6705e-06
9.79998e-09
5.66909e-06
1.03535e-08
5.66775e-06
1.0875e-08
5.66653e-06
1.12278e-08
5.66537e-06
1.15595e-08
5.66432e-06
1.17407e-08
5.6634e-06
1.19181e-08
5.66267e-06
1.19683e-08
5.66215e-06
1.19872e-08
5.66187e-06
1.18794e-08
5.66182e-06
1.17189e-08
1.1445e-08
5.66203e-06
6.14246e-06
-4.69035e-08
6.14601e-06
3.10456e-08
6.14191e-06
-2.52407e-08
6.14498e-06
1.71747e-08
6.1419e-06
-8.6037e-09
6.14414e-06
8.17603e-09
6.14127e-06
-3.17073e-09
6.14317e-06
6.08688e-09
6.14093e-06
4.06216e-09
6.14138e-06
3.36063e-09
6.14023e-06
2.43211e-09
6.14015e-06
1.97379e-09
6.13912e-06
3.68526e-09
6.13839e-06
3.71466e-09
6.1374e-06
5.68654e-09
6.13687e-06
6.60353e-09
6.13619e-06
7.33457e-09
6.13566e-06
7.57808e-09
6.13494e-06
7.86467e-09
6.13428e-06
7.91054e-09
6.13339e-06
8.06725e-09
6.13253e-06
8.23313e-09
6.13149e-06
8.46127e-09
6.13043e-06
8.81534e-09
6.12923e-06
9.07191e-09
6.12802e-06
9.48804e-09
6.12659e-06
1.00708e-08
6.12511e-06
1.0658e-08
6.12357e-06
1.13382e-08
6.12219e-06
1.17341e-08
6.1209e-06
1.21685e-08
6.11974e-06
1.23802e-08
6.11866e-06
1.26404e-08
6.11767e-06
1.27387e-08
6.11677e-06
1.28087e-08
6.11605e-06
1.26912e-08
6.11551e-06
1.25309e-08
6.11519e-06
1.22015e-08
6.1151e-06
1.18086e-08
1.11871e-08
6.11535e-06
6.63298e-06
-4.33187e-08
6.63668e-06
2.73417e-08
6.63245e-06
-2.10135e-08
6.63552e-06
1.4113e-08
6.63248e-06
-5.56856e-09
6.63456e-06
6.09335e-09
6.63185e-06
-4.62873e-10
6.63335e-06
4.58755e-09
6.63169e-06
5.72164e-09
6.63169e-06
3.36728e-09
6.63075e-06
3.36751e-09
6.63039e-06
2.33194e-09
6.62922e-06
4.85641e-09
6.62861e-06
4.32937e-09
6.62758e-06
6.71807e-09
6.62709e-06
7.0888e-09
6.62628e-06
8.15144e-09
6.62573e-06
8.12317e-09
6.62483e-06
8.76484e-09
6.62416e-06
8.57578e-09
6.62314e-06
9.09178e-09
6.62231e-06
9.06014e-09
6.62119e-06
9.58581e-09
6.62018e-06
9.82194e-09
6.61886e-06
1.03927e-08
6.61747e-06
1.08829e-08
6.61586e-06
1.16803e-08
6.6144e-06
1.21103e-08
6.61298e-06
1.27634e-08
6.61176e-06
1.29546e-08
6.61055e-06
1.33815e-08
6.60946e-06
1.34701e-08
6.60837e-06
1.37268e-08
6.60742e-06
1.36889e-08
6.60652e-06
1.3706e-08
6.60579e-06
1.34267e-08
6.60518e-06
1.31369e-08
6.60477e-06
1.26116e-08
6.60437e-06
1.22098e-08
1.14111e-08
6.60414e-06
7.16268e-06
-3.95675e-08
7.16652e-06
2.34961e-08
7.16218e-06
-1.66733e-08
7.16522e-06
1.10742e-08
7.16223e-06
-2.57888e-09
7.16418e-06
4.14356e-09
7.16164e-06
2.08355e-09
7.16272e-06
3.50511e-09
7.16156e-06
6.88441e-09
7.16125e-06
3.67547e-09
7.16031e-06
4.30465e-09
7.15976e-06
2.88673e-09
7.15867e-06
5.93814e-09
7.15797e-06
5.03011e-09
7.15702e-06
7.67532e-09
7.15643e-06
7.67643e-09
7.15557e-06
9.01036e-09
7.15492e-06
8.77434e-09
7.15396e-06
9.72515e-09
7.15319e-06
9.34603e-09
7.1521e-06
1.01762e-08
7.15115e-06
1.00111e-08
7.14989e-06
1.08518e-08
7.14859e-06
1.11186e-08
7.14697e-06
1.20171e-08
7.14552e-06
1.23277e-08
7.14414e-06
1.30646e-08
7.14299e-06
1.32547e-08
7.14189e-06
1.38679e-08
7.14083e-06
1.40144e-08
7.13971e-06
1.45015e-08
7.13861e-06
1.45731e-08
7.13743e-06
1.49055e-08
7.13627e-06
1.48437e-08
7.1351e-06
1.48768e-08
7.13399e-06
1.45425e-08
7.1329e-06
1.42176e-08
7.13204e-06
1.348e-08
7.13191e-06
1.23373e-08
1.07371e-08
7.13258e-06
7.73472e-06
-3.56868e-08
7.73864e-06
1.95754e-08
7.7343e-06
-1.23311e-08
7.73714e-06
8.23474e-09
7.73443e-06
1.30874e-10
7.73587e-06
2.70188e-09
7.73413e-06
3.83065e-09
7.73383e-06
3.80293e-09
7.73392e-06
6.79627e-09
7.73312e-06
4.46753e-09
7.73234e-06
5.08874e-09
7.73129e-06
3.93517e-09
7.73056e-06
6.66833e-09
7.72947e-06
6.12016e-09
7.72883e-06
8.31987e-09
7.7279e-06
8.60372e-09
7.72723e-06
9.68167e-09
7.72629e-06
9.71046e-09
7.72547e-06
1.05437e-08
7.72442e-06
1.04031e-08
7.72344e-06
1.11572e-08
7.72218e-06
1.12653e-08
7.72084e-06
1.21969e-08
7.71927e-06
1.26865e-08
7.71782e-06
1.34649e-08
7.71643e-06
1.37159e-08
7.71522e-06
1.42748e-08
7.71404e-06
1.44393e-08
7.71303e-06
1.48769e-08
7.71215e-06
1.48931e-08
7.71154e-06
1.51127e-08
7.71125e-06
1.4864e-08
7.71137e-06
1.47855e-08
7.71181e-06
1.43994e-08
7.71256e-06
1.41256e-08
7.71345e-06
1.36513e-08
7.71443e-06
1.32389e-08
7.71527e-06
1.26382e-08
7.71545e-06
1.21648e-08
1.12602e-08
7.71492e-06
8.35248e-06
-3.17096e-08
8.35642e-06
1.56365e-08
8.35215e-06
-8.05834e-09
8.35472e-06
5.66157e-09
8.35236e-06
2.49337e-09
8.35319e-06
1.86772e-09
8.35255e-06
4.47221e-09
8.35134e-06
5.01621e-09
8.35144e-06
6.69974e-09
8.35045e-06
5.45049e-09
8.34983e-06
5.70695e-09
8.3486e-06
5.16612e-09
8.348e-06
7.26911e-09
8.34676e-06
7.36252e-09
8.34618e-06
8.90538e-09
8.34511e-06
9.66754e-09
8.34444e-06
1.03539e-08
8.34337e-06
1.07795e-08
8.34255e-06
1.13675e-08
8.34128e-06
1.16656e-08
8.34014e-06
1.22968e-08
8.33855e-06
1.28594e-08
8.33714e-06
1.36074e-08
8.33566e-06
1.41697e-08
8.33447e-06
1.46515e-08
8.33324e-06
1.49463e-08
8.33221e-06
1.53054e-08
8.33122e-06
1.54318e-08
8.33043e-06
1.56664e-08
8.32977e-06
1.55494e-08
8.32949e-06
1.53913e-08
8.32938e-06
1.49768e-08
8.32953e-06
1.46304e-08
8.32972e-06
1.4211e-08
8.33002e-06
1.38251e-08
8.33035e-06
1.33207e-08
8.33076e-06
1.28341e-08
8.33117e-06
1.22254e-08
8.33175e-06
1.15841e-08
1.0759e-08
8.33225e-06
9.01964e-06
-2.76984e-08
9.0235e-06
1.17764e-08
9.01946e-06
-4.02016e-09
9.02149e-06
3.63432e-09
9.0198e-06
4.1755e-09
9.01938e-06
2.28604e-09
9.01946e-06
4.39868e-09
9.01874e-06
5.73356e-09
9.01839e-06
7.05137e-09
9.01749e-06
6.3532e-09
9.01666e-06
6.5362e-09
9.0155e-06
6.32427e-09
9.0147e-06
8.06982e-09
9.01354e-06
8.52451e-09
9.01274e-06
9.6979e-09
9.01176e-06
1.06523e-08
9.0109e-06
1.12111e-08
9.00984e-06
1.1837e-08
9.00881e-06
1.24038e-08
9.00745e-06
1.30224e-08
9.00604e-06
1.3708e-08
9.00452e-06
1.43803e-08
9.00315e-06
1.49732e-08
9.00189e-06
1.54303e-08
9.00073e-06
1.58181e-08
8.99965e-06
1.6024e-08
8.9987e-06
1.62503e-08
8.99792e-06
1.62112e-08
8.9975e-06
1.60868e-08
8.99729e-06
1.57597e-08
8.99721e-06
1.54721e-08
8.99718e-06
1.50052e-08
8.99719e-06
1.46268e-08
8.99721e-06
1.41887e-08
8.99729e-06
1.37485e-08
8.99742e-06
1.31838e-08
8.99759e-06
1.26697e-08
8.99773e-06
1.20849e-08
8.99781e-06
1.15043e-08
1.09514e-08
8.99762e-06
9.74012e-06
-2.37128e-08
9.74378e-06
8.10899e-09
9.74024e-06
-4.71319e-10
9.74151e-06
2.36471e-09
9.74093e-06
4.75422e-09
9.73978e-06
3.43346e-09
9.73949e-06
4.69051e-09
9.73898e-06
6.24534e-09
9.73857e-06
7.45621e-09
9.73766e-06
7.26856e-09
9.73673e-06
7.45827e-09
9.73558e-06
7.48196e-09
9.73469e-06
8.95635e-09
9.73355e-06
9.66347e-09
9.73263e-06
1.06197e-08
9.7316e-06
1.16791e-08
9.73061e-06
1.21989e-08
9.72941e-06
1.30405e-08
9.72809e-06
1.37193e-08
9.72662e-06
1.44934e-08
9.72514e-06
1.5192e-08
9.72382e-06
1.5701e-08
9.72262e-06
1.61688e-08
9.72162e-06
1.64364e-08
9.72078e-06
1.66586e-08
9.72014e-06
1.66628e-08
9.71967e-06
1.67142e-08
9.71934e-06
1.65488e-08
9.7189e-06
1.65212e-08
9.71849e-06
1.61737e-08
9.71813e-06
1.58346e-08
9.71781e-06
1.53249e-08
9.71757e-06
1.48594e-08
9.71749e-06
1.42693e-08
9.71747e-06
1.37686e-08
9.71744e-06
1.32159e-08
9.71744e-06
1.26728e-08
9.71741e-06
1.21154e-08
9.71737e-06
1.154e-08
1.09503e-08
9.71737e-06
1.05182e-05
-1.98621e-08
1.05215e-05
4.78836e-09
1.05195e-05
1.53931e-09
1.05192e-05
2.70366e-09
1.05189e-05
5.07664e-09
1.05177e-05
4.58568e-09
1.05171e-05
5.32219e-09
1.05165e-05
6.84729e-09
1.05162e-05
7.76001e-09
1.05154e-05
8.06487e-09
1.05144e-05
8.47128e-09
1.05132e-05
8.66398e-09
1.05122e-05
9.95608e-09
1.0511e-05
1.08249e-08
1.051e-05
1.16342e-08
1.05089e-05
1.28104e-08
1.05077e-05
1.33726e-08
1.05064e-05
1.43984e-08
1.05049e-05
1.51618e-08
1.05035e-05
1.58648e-08
1.05022e-05
1.64874e-08
1.05011e-05
1.68813e-08
1.04999e-05
1.73006e-08
1.04989e-05
1.75197e-08
1.04978e-05
1.77362e-08
1.04968e-05
1.76675e-08
1.04959e-05
1.75787e-08
1.04953e-05
1.71597e-08
1.04951e-05
1.66925e-08
1.04951e-05
1.61533e-08
1.04953e-05
1.57192e-08
1.04953e-05
1.52414e-08
1.04954e-05
1.482e-08
1.04953e-05
1.436e-08
1.04952e-05
1.38521e-08
1.04951e-05
1.32865e-08
1.04951e-05
1.27088e-08
1.04951e-05
1.21114e-08
1.04951e-05
1.15099e-08
1.09235e-08
1.04952e-05
1.13585e-05
-1.61973e-08
1.13614e-05
1.89337e-09
1.13601e-05
2.83268e-09
1.13592e-05
3.61952e-09
1.13587e-05
5.56559e-09
1.13579e-05
5.37537e-09
1.13572e-05
6.04522e-09
1.13564e-05
7.59787e-09
1.13559e-05
8.3075e-09
1.13552e-05
8.80141e-09
1.13541e-05
9.50084e-09
1.13529e-05
9.85111e-09
1.13519e-05
1.10343e-08
1.13506e-05
1.2049e-08
1.13495e-05
1.27887e-08
1.13482e-05
1.40751e-08
1.13468e-05
1.4767e-08
1.13455e-05
1.57599e-08
1.13441e-05
1.65612e-08
1.13428e-05
1.70998e-08
1.13416e-05
1.76837e-08
1.13405e-05
1.79757e-08
1.13395e-05
1.83054e-08
1.13387e-05
1.83816e-08
1.1338e-05
1.84026e-08
1.13375e-05
1.81556e-08
1.13372e-05
1.79117e-08
1.13369e-05
1.7454e-08
1.13365e-05
1.70343e-08
1.13362e-05
1.65484e-08
1.13358e-05
1.60507e-08
1.13356e-05
1.55105e-08
1.13354e-05
1.50003e-08
1.13353e-05
1.44575e-08
1.13352e-05
1.38996e-08
1.13352e-05
1.33102e-08
1.13352e-05
1.27007e-08
1.13352e-05
1.20836e-08
1.13353e-05
1.14601e-08
1.0821e-08
1.13354e-05
1.2266e-05
-1.28135e-08
1.22683e-05
-4.75781e-10
1.22675e-05
3.66354e-09
1.22664e-05
4.6731e-09
1.22658e-05
6.19124e-09
1.2265e-05
6.1752e-09
1.22643e-05
6.78359e-09
1.22635e-05
8.33426e-09
1.22628e-05
9.0535e-09
1.2262e-05
9.60686e-09
1.2261e-05
1.05214e-08
1.22598e-05
1.10469e-08
1.22586e-05
1.21924e-08
1.22573e-05
1.33781e-08
1.2256e-05
1.40797e-08
1.22546e-05
1.54211e-08
1.22532e-05
1.62515e-08
1.22518e-05
1.70798e-08
1.22506e-05
1.7831e-08
1.22494e-05
1.82713e-08
1.22483e-05
1.87442e-08
1.22474e-05
1.88758e-08
1.22467e-05
1.90614e-08
1.22461e-05
1.90115e-08
1.22455e-05
1.89612e-08
1.22449e-05
1.87043e-08
1.22445e-05
1.83788e-08
1.22441e-05
1.78777e-08
1.22437e-05
1.7399e-08
1.22434e-05
1.68484e-08
1.22431e-05
1.63151e-08
1.22429e-05
1.57315e-08
1.22428e-05
1.5148e-08
1.22427e-05
1.45549e-08
1.22426e-05
1.39436e-08
1.22426e-05
1.33211e-08
1.22426e-05
1.26824e-08
1.22427e-05
1.20498e-08
1.22427e-05
1.14127e-08
1.0778e-08
1.22427e-05
1.32459e-05
-9.76583e-09
1.32477e-05
-2.25446e-09
1.32472e-05
4.10757e-09
1.32462e-05
5.67988e-09
1.32455e-05
6.94408e-09
1.32446e-05
7.05664e-09
1.32437e-05
7.63793e-09
1.3243e-05
9.04332e-09
1.32422e-05
9.87772e-09
1.32413e-05
1.05262e-08
1.32402e-05
1.15666e-08
1.3239e-05
1.22629e-08
1.32378e-05
1.34091e-08
1.32364e-05
1.4765e-08
1.3235e-05
1.55242e-08
1.32336e-05
1.682e-08
1.32321e-05
1.76975e-08
1.32309e-05
1.83348e-08
1.32297e-05
1.89761e-08
1.32287e-05
1.93247e-08
1.32277e-05
1.97319e-08
1.32267e-05
1.98053e-08
1.32259e-05
1.99074e-08
1.32252e-05
1.97536e-08
1.32246e-05
1.95659e-08
1.32242e-05
1.90924e-08
1.32239e-05
1.86573e-08
1.32236e-05
1.81264e-08
1.32234e-05
1.76331e-08
1.32232e-05
1.70824e-08
1.3223e-05
1.65072e-08
1.32228e-05
1.58959e-08
1.32227e-05
1.5269e-08
1.32226e-05
1.46282e-08
1.32226e-05
1.39701e-08
1.32226e-05
1.33139e-08
1.32226e-05
1.26471e-08
1.32227e-05
1.19954e-08
1.32228e-05
1.1343e-08
1.06968e-08
1.32228e-05
1.43041e-05
-7.15374e-09
1.43051e-05
-3.20241e-09
1.43051e-05
4.11794e-09
1.43042e-05
6.50373e-09
1.43034e-05
7.77286e-09
1.43025e-05
8.01281e-09
1.43015e-05
8.6393e-09
1.43006e-05
9.90259e-09
1.42998e-05
1.07038e-08
1.42988e-05
1.15016e-08
1.42977e-05
1.26585e-08
1.42965e-05
1.35111e-08
1.42951e-05
1.47107e-08
1.42937e-05
1.62378e-08
1.42922e-05
1.70119e-08
1.42908e-05
1.81913e-08
1.42895e-05
1.90214e-08
1.42883e-05
1.95121e-08
1.42872e-05
2.00591e-08
1.42863e-05
2.02984e-08
1.42854e-05
2.06094e-08
1.42846e-05
2.05489e-08
1.4284e-05
2.05173e-08
1.42835e-05
2.0246e-08
1.42831e-05
2.00124e-08
1.42826e-05
1.95809e-08
1.42822e-05
1.909e-08
1.42818e-05
1.84884e-08
1.42815e-05
1.7899e-08
1.42814e-05
1.72714e-08
1.42812e-05
1.66482e-08
1.42811e-05
1.60015e-08
1.4281e-05
1.53309e-08
1.4281e-05
1.46548e-08
1.4281e-05
1.39601e-08
1.42811e-05
1.32773e-08
1.42811e-05
1.25862e-08
1.42812e-05
1.19186e-08
1.42813e-05
1.12526e-08
1.05974e-08
1.42814e-05
1.54469e-05
-5.01188e-09
1.54463e-05
-2.69207e-09
1.54471e-05
3.32252e-09
1.54467e-05
6.89863e-09
1.54459e-05
8.65181e-09
1.54448e-05
9.0533e-09
1.54437e-05
9.74905e-09
1.54427e-05
1.09414e-08
1.54417e-05
1.16533e-08
1.54406e-05
1.25905e-08
1.54394e-05
1.38686e-08
1.54381e-05
1.48896e-08
1.54367e-05
1.6075e-08
1.54353e-05
1.76479e-08
1.54339e-05
1.83924e-08
1.54327e-05
1.93718e-08
1.54315e-05
2.0234e-08
1.54304e-05
2.0595e-08
1.54294e-05
2.10697e-08
1.54285e-05
2.11941e-08
1.54277e-05
2.1411e-08
1.5427e-05
2.12799e-08
1.54263e-05
2.11586e-08
1.54258e-05
2.07903e-08
1.54254e-05
2.04262e-08
1.54251e-05
1.98975e-08
1.54248e-05
1.93461e-08
1.54246e-05
1.87201e-08
1.54244e-05
1.80731e-08
1.54243e-05
1.74152e-08
1.54242e-05
1.6737e-08
1.54241e-05
1.60548e-08
1.54241e-05
1.53416e-08
1.54241e-05
1.46375e-08
1.54242e-05
1.39114e-08
1.54242e-05
1.32085e-08
1.54243e-05
1.24967e-08
1.54244e-05
1.18171e-08
1.54245e-05
1.11394e-08
1.04808e-08
1.54247e-05
1.66808e-05
-3.33849e-09
1.66798e-05
-1.68367e-09
1.66804e-05
2.67987e-09
1.66803e-05
7.01097e-09
1.66795e-05
9.4517e-09
1.66784e-05
1.01269e-08
1.66773e-05
1.09219e-08
1.6676e-05
1.21559e-08
1.66749e-05
1.28259e-08
1.66736e-05
1.38862e-08
1.66723e-05
1.51851e-08
1.66709e-05
1.62622e-08
1.66696e-05
1.738e-08
1.66684e-05
1.88763e-08
1.66671e-05
1.96881e-08
1.6666e-05
2.04317e-08
1.66649e-05
2.1339e-08
1.66639e-05
2.16149e-08
1.6663e-05
2.19928e-08
1.66621e-05
2.20478e-08
1.66614e-05
2.21394e-08
1.66607e-05
2.19414e-08
1.66602e-05
2.16872e-08
1.66597e-05
2.12409e-08
1.66594e-05
2.07576e-08
1.66591e-05
2.01732e-08
1.66589e-05
1.9533e-08
1.66588e-05
1.88682e-08
1.66587e-05
1.8175e-08
1.66586e-05
1.74882e-08
1.66586e-05
1.67635e-08
1.66586e-05
1.60517e-08
1.66586e-05
1.53022e-08
1.66587e-05
1.45749e-08
1.66588e-05
1.38237e-08
1.66589e-05
1.3105e-08
1.6659e-05
1.23782e-08
1.66591e-05
1.169e-08
1.66593e-05
1.10052e-08
1.03432e-08
1.66594e-05
1.8013e-05
-1.96672e-09
1.80121e-05
-7.21322e-10
1.80119e-05
2.84455e-09
1.80121e-05
6.84212e-09
1.80116e-05
9.96186e-09
1.80105e-05
1.11376e-08
1.80093e-05
1.21278e-08
1.8008e-05
1.34914e-08
1.80067e-05
1.41472e-08
1.80053e-05
1.52712e-08
1.80039e-05
1.65459e-08
1.80026e-05
1.75846e-08
1.80013e-05
1.86867e-08
1.80002e-05
1.99829e-08
1.7999e-05
2.09341e-08
1.79979e-05
2.14646e-08
1.7997e-05
2.23079e-08
1.7996e-05
2.25939e-08
1.79952e-05
2.28162e-08
1.79944e-05
2.28312e-08
1.79937e-05
2.27875e-08
1.79931e-05
2.25387e-08
1.79927e-05
2.21456e-08
1.79923e-05
2.15893e-08
1.79921e-05
2.09714e-08
1.7992e-05
2.0323e-08
1.79919e-05
1.96352e-08
1.79918e-05
1.89467e-08
1.79917e-05
1.82148e-08
1.79917e-05
1.74963e-08
1.79918e-05
1.67352e-08
1.79918e-05
1.59931e-08
1.79919e-05
1.5217e-08
1.7992e-05
1.44676e-08
1.79921e-05
1.36999e-08
1.79923e-05
1.29671e-08
1.79924e-05
1.22317e-08
1.79926e-05
1.15359e-08
1.79927e-05
1.08486e-08
1.01841e-08
1.79929e-05
1.94516e-05
-9.05182e-10
1.94506e-05
2.81986e-10
1.945e-05
3.50039e-09
1.94501e-05
6.73983e-09
1.94498e-05
1.01874e-08
1.94489e-05
1.20285e-08
1.94478e-05
1.32869e-08
1.94464e-05
1.48775e-08
1.9445e-05
1.5542e-08
1.94436e-05
1.66699e-08
1.94422e-05
1.79661e-08
1.94409e-05
1.88449e-08
1.94396e-05
2.00104e-08
1.94385e-05
2.1051e-08
1.94374e-05
2.20256e-08
1.94364e-05
2.25278e-08
1.94356e-05
2.31305e-08
1.94347e-05
2.34867e-08
1.94339e-05
2.35519e-08
1.94333e-05
2.35023e-08
1.94327e-05
2.33181e-08
1.94323e-05
2.29772e-08
1.9432e-05
2.24596e-08
1.94317e-05
2.18232e-08
1.94316e-05
2.11291e-08
1.94315e-05
2.04155e-08
1.94314e-05
1.96879e-08
1.94314e-05
1.89609e-08
1.94314e-05
1.81997e-08
1.94315e-05
1.74415e-08
1.94316e-05
1.6653e-08
1.94317e-05
1.5879e-08
1.94318e-05
1.50851e-08
1.9432e-05
1.43148e-08
1.94321e-05
1.35381e-08
1.94323e-05
1.27933e-08
1.94325e-05
1.20551e-08
1.94327e-05
1.13538e-08
1.94329e-05
1.0668e-08
1.00032e-08
1.9433e-05
2.1005e-05
-1.03297e-10
2.10039e-05
1.35302e-09
2.10032e-05
4.19013e-09
2.10029e-05
7.09743e-09
2.10027e-05
1.03558e-08
2.10021e-05
1.26696e-08
2.10011e-05
1.42812e-08
2.09998e-05
1.61912e-08
2.09983e-05
1.69705e-08
2.09969e-05
1.80683e-08
2.09955e-05
1.94397e-08
2.09942e-05
2.0098e-08
2.0993e-05
2.12548e-08
2.09919e-05
2.21533e-08
2.09909e-05
2.2944e-08
2.09899e-05
2.35442e-08
2.09892e-05
2.38779e-08
2.09885e-05
2.42117e-08
2.09878e-05
2.41885e-08
2.09873e-05
2.4021e-08
2.09869e-05
2.37371e-08
2.09866e-05
2.32509e-08
2.09864e-05
2.26688e-08
2.09863e-05
2.19369e-08
2.09862e-05
2.12011e-08
2.09862e-05
2.04313e-08
2.09862e-05
1.96823e-08
2.09862e-05
1.89171e-08
2.09863e-05
1.81249e-08
2.09864e-05
1.73285e-08
2.09866e-05
1.65168e-08
2.09867e-05
1.57155e-08
2.09869e-05
1.49067e-08
2.09871e-05
1.41207e-08
2.09873e-05
1.33377e-08
2.09875e-05
1.25862e-08
2.09877e-05
1.18475e-08
2.09879e-05
1.11453e-08
2.09881e-05
1.04628e-08
9.80113e-09
2.09883e-05
2.26823e-05
4.98288e-10
2.26813e-05
2.39083e-09
2.26805e-05
4.98296e-09
2.26799e-05
7.68649e-09
2.26796e-05
1.06838e-08
2.2679e-05
1.32006e-08
2.26783e-05
1.50646e-08
2.26771e-05
1.7328e-08
2.26757e-05
1.83743e-08
2.26744e-05
1.9366e-08
2.2673e-05
2.09029e-08
2.26716e-05
2.14072e-08
2.26705e-05
2.23615e-08
2.26694e-05
2.32861e-08
2.26686e-05
2.37356e-08
2.26678e-05
2.43853e-08
2.26671e-05
2.45839e-08
2.26665e-05
2.47497e-08
2.2666e-05
2.47012e-08
2.26657e-05
2.43696e-08
2.26654e-05
2.40099e-08
2.26653e-05
2.3387e-08
2.26652e-05
2.27488e-08
2.26652e-05
2.19462e-08
2.26652e-05
2.11857e-08
2.26652e-05
2.03827e-08
2.26653e-05
1.96119e-08
2.26654e-05
1.88097e-08
2.26656e-05
1.7981e-08
2.26657e-05
1.71595e-08
2.26659e-05
1.63216e-08
2.26661e-05
1.55039e-08
2.26664e-05
1.46787e-08
2.26666e-05
1.38863e-08
2.26668e-05
1.30966e-08
2.26671e-05
1.23461e-08
2.26673e-05
1.16073e-08
2.26676e-05
1.09103e-08
2.26678e-05
1.02313e-08
9.57795e-09
2.2668e-05
2.44935e-05
9.78949e-10
2.44926e-05
3.29206e-09
2.44917e-05
5.88694e-09
2.44909e-05
8.42931e-09
2.44903e-05
1.12663e-08
2.44898e-05
1.37746e-08
2.44891e-05
1.57045e-08
2.44883e-05
1.81541e-08
2.4487e-05
1.96596e-08
2.44858e-05
2.05523e-08
2.44845e-05
2.21999e-08
2.44832e-05
2.27795e-08
2.44822e-05
2.33422e-08
2.44812e-05
2.42983e-08
2.44804e-05
2.45225e-08
2.44798e-05
2.49684e-08
2.44792e-05
2.51851e-08
2.44788e-05
2.51111e-08
2.44785e-05
2.50255e-08
2.44783e-05
2.45423e-08
2.44782e-05
2.41059e-08
2.44782e-05
2.33948e-08
2.44783e-05
2.27071e-08
2.44783e-05
2.19006e-08
2.44784e-05
2.11003e-08
2.44785e-05
2.02808e-08
2.44787e-05
1.94511e-08
2.44788e-05
1.86301e-08
2.44791e-05
1.77692e-08
2.44793e-05
1.6935e-08
2.44795e-05
1.60681e-08
2.44798e-05
1.52435e-08
2.44801e-05
1.44011e-08
2.44803e-05
1.36108e-08
2.44806e-05
1.28153e-08
2.44809e-05
1.20706e-08
2.44812e-05
1.13332e-08
2.44814e-05
1.06538e-08
2.44817e-05
9.9823e-09
9.32764e-09
2.44819e-05
2.64492e-05
1.35551e-09
2.64484e-05
4.08741e-09
2.64475e-05
6.8037e-09
2.64466e-05
9.30316e-09
2.64459e-05
1.20173e-08
2.6445e-05
1.45969e-08
2.64443e-05
1.64318e-08
2.64437e-05
1.8802e-08
2.64426e-05
2.06627e-08
2.64417e-05
2.15283e-08
2.64407e-05
2.31711e-08
2.64394e-05
2.4039e-08
2.64385e-05
2.4242e-08
2.64378e-05
2.50864e-08
2.6437e-05
2.52569e-08
2.64366e-05
2.53561e-08
2.64363e-05
2.55558e-08
2.64361e-05
2.53009e-08
2.6436e-05
2.51235e-08
2.6436e-05
2.45466e-08
2.6436e-05
2.40474e-08
2.64361e-05
2.33348e-08
2.64362e-05
2.25884e-08
2.64363e-05
2.17689e-08
2.64365e-05
2.09077e-08
2.64367e-05
2.00824e-08
2.6437e-05
1.92027e-08
2.64372e-05
1.83733e-08
2.64375e-05
1.74771e-08
2.64378e-05
1.66361e-08
2.64381e-05
1.5749e-08
2.64385e-05
1.49245e-08
2.64388e-05
1.40771e-08
2.64391e-05
1.32909e-08
2.64394e-05
1.24983e-08
2.64397e-05
1.17624e-08
2.644e-05
1.10328e-08
2.64403e-05
1.03553e-08
2.64406e-05
9.69264e-09
9.06401e-09
2.64409e-05
2.8561e-05
1.6568e-09
2.85603e-05
4.79368e-09
2.85594e-05
7.6672e-09
2.85585e-05
1.02419e-08
2.85577e-05
1.28719e-08
2.85567e-05
1.5516e-08
2.85558e-05
1.74042e-08
2.8555e-05
1.95245e-08
2.85542e-05
2.1489e-08
2.85533e-05
2.23936e-08
2.85528e-05
2.37339e-08
2.8552e-05
2.48537e-08
2.85512e-05
2.50063e-08
2.85507e-05
2.5577e-08
2.85501e-05
2.584e-08
2.85498e-05
2.56547e-08
2.85497e-05
2.57151e-08
2.85496e-05
2.53697e-08
2.85497e-05
2.50565e-08
2.85498e-05
2.44419e-08
2.855e-05
2.38051e-08
2.85503e-05
2.31036e-08
2.85505e-05
2.23032e-08
2.85508e-05
2.15081e-08
2.85511e-05
2.06023e-08
2.85514e-05
1.97716e-08
2.85518e-05
1.88573e-08
2.85521e-05
1.80184e-08
2.85525e-05
1.71059e-08
2.85529e-05
1.62586e-08
2.85532e-05
1.53684e-08
2.85536e-05
1.45431e-08
2.8554e-05
1.3703e-08
2.85544e-05
1.29222e-08
2.85547e-05
1.21436e-08
2.85551e-05
1.14173e-08
2.85554e-05
1.07043e-08
2.85557e-05
1.00382e-08
2.8556e-05
9.39284e-09
8.80393e-09
2.85563e-05
3.08414e-05
1.9001e-09
3.08408e-05
5.39396e-09
3.084e-05
8.48918e-09
3.08391e-05
1.11768e-08
3.08382e-05
1.37664e-08
3.08373e-05
1.64141e-08
3.08363e-05
1.83797e-08
3.08355e-05
2.02911e-08
3.08348e-05
2.2214e-08
3.0834e-05
2.31934e-08
3.08336e-05
2.41809e-08
3.08331e-05
2.52862e-08
3.08326e-05
2.55223e-08
3.08324e-05
2.57744e-08
3.08322e-05
2.60643e-08
3.08321e-05
2.57781e-08
3.08322e-05
2.56279e-08
3.08323e-05
2.52333e-08
3.08326e-05
2.47896e-08
3.08328e-05
2.41865e-08
3.08332e-05
2.3447e-08
3.08335e-05
2.27421e-08
3.08339e-05
2.1903e-08
3.08343e-05
2.11161e-08
3.08347e-05
2.01921e-08
3.08352e-05
1.93421e-08
3.08356e-05
1.84116e-08
3.08361e-05
1.75541e-08
3.08365e-05
1.66442e-08
3.0837e-05
1.57898e-08
3.08375e-05
1.4912e-08
3.08379e-05
1.4086e-08
3.08384e-05
1.32636e-08
3.08388e-05
1.24895e-08
3.08392e-05
1.17335e-08
3.08396e-05
1.10277e-08
3.084e-05
1.03436e-08
3.08403e-05
9.69111e-09
3.08406e-05
9.06715e-09
8.4899e-09
3.08409e-05
3.33039e-05
2.05446e-09
3.33034e-05
5.96476e-09
3.33027e-05
9.20339e-09
3.33017e-05
1.20975e-08
3.33009e-05
1.46236e-08
3.33001e-05
1.72337e-08
3.32992e-05
1.9242e-08
3.32985e-05
2.09858e-08
3.32979e-05
2.27788e-08
3.32973e-05
2.38725e-08
3.32968e-05
2.46253e-08
3.32966e-05
2.55439e-08
3.32962e-05
2.58657e-08
3.32961e-05
2.5893e-08
3.32961e-05
2.60296e-08
3.32962e-05
2.57347e-08
3.32964e-05
2.53689e-08
3.32968e-05
2.48914e-08
3.32973e-05
2.42944e-08
3.32978e-05
2.36636e-08
3.32984e-05
2.28603e-08
3.3299e-05
2.21308e-08
3.32996e-05
2.12927e-08
3.33002e-05
2.05289e-08
3.33007e-05
1.96459e-08
3.33013e-05
1.87892e-08
3.33018e-05
1.78673e-08
3.33024e-05
1.69899e-08
3.3303e-05
1.60942e-08
3.33035e-05
1.52314e-08
3.33041e-05
1.43561e-08
3.33046e-05
1.35392e-08
3.33051e-05
1.27466e-08
3.33056e-05
1.19895e-08
3.33061e-05
1.12635e-08
3.33066e-05
1.05698e-08
3.3307e-05
9.90972e-09
3.33074e-05
9.27988e-09
3.33078e-05
8.68435e-09
8.10819e-09
3.33082e-05
3.5963e-05
2.19056e-09
3.59625e-05
6.49015e-09
3.59618e-05
9.88715e-09
3.5961e-05
1.29237e-08
3.59602e-05
1.54054e-08
3.59595e-05
1.79003e-08
3.59588e-05
1.99586e-08
3.59582e-05
2.16001e-08
3.59578e-05
2.31683e-08
3.59574e-05
2.4301e-08
3.59571e-05
2.48992e-08
3.59571e-05
2.55444e-08
3.59571e-05
2.58273e-08
3.59573e-05
2.57324e-08
3.59577e-05
2.56298e-08
3.59581e-05
2.53063e-08
3.59587e-05
2.47993e-08
3.59593e-05
2.42536e-08
3.596e-05
2.35808e-08
3.59608e-05
2.29462e-08
3.59614e-05
2.21965e-08
3.5962e-05
2.15383e-08
3.59626e-05
2.07158e-08
3.59632e-05
1.98988e-08
3.59639e-05
1.89908e-08
3.59646e-05
1.80494e-08
3.59653e-05
1.71344e-08
3.59661e-05
1.62571e-08
3.59667e-05
1.54326e-08
3.59674e-05
1.46122e-08
3.59679e-05
1.38074e-08
3.59684e-05
1.30235e-08
3.59689e-05
1.22699e-08
3.59693e-05
1.15403e-08
3.59698e-05
1.08459e-08
3.59702e-05
1.01769e-08
3.59705e-05
9.5438e-09
3.59709e-05
8.93627e-09
3.59712e-05
8.36342e-09
7.82455e-09
3.59715e-05
3.88347e-05
1.92272e-09
3.88333e-05
7.90179e-09
3.88333e-05
9.91881e-09
3.88323e-05
1.39448e-08
3.88322e-05
1.54893e-08
3.88314e-05
1.87064e-08
3.88312e-05
2.01212e-08
3.88304e-05
2.24336e-08
3.88303e-05
2.32559e-08
3.88297e-05
2.48635e-08
3.88296e-05
2.50034e-08
3.88294e-05
2.58039e-08
3.88295e-05
2.57048e-08
3.88294e-05
2.58421e-08
3.88296e-05
2.53654e-08
3.88298e-05
2.51637e-08
3.88302e-05
2.43999e-08
3.88306e-05
2.38689e-08