/*--------------------------------*- C++ -*----------------------------------*\
| =========                 |                                                 |
| \\      /  F ield         | OpenFOAM: The Open Source CFD Toolbox           |
|  \\    /   O peration     | Version:  2312                                  |
|   \\  /    A nd           | Website:  www.openfoam.com                      |
|    \\/     M anipulation  |                                                 |
\*---------------------------------------------------------------------------*/
FoamFile
{
    version     2.0;
    format      ascii;
    arch        "LSB;label=32;scalar=64";
    class       volVectorField;
    location    "0.55";
    object      U;
}
// * * * * * * * * * * * * * * * * * * * * * * * * * * * * * * * * * * * * * //

dimensions      [0 1 -1 0 0 0 0];

internalField   nonuniform List<vector> 
5600
(
(0.971777 -0.000840118 0)
(1.02743 0.00074354 0)
(0.974285 -0.000723336 0)
(1.02505 0.000596043 0)
(0.976904 -0.000486114 0)
(1.02249 0.000477301 0)
(0.979333 -0.000453713 0)
(1.02013 0.000391645 0)
(0.981313 -0.000279351 0)
(1.01792 0.000320913 0)
(0.983187 -0.000250249 0)
(1.0159 0.000213611 0)
(0.9849 -0.00021734 0)
(1.01394 0.000156955 0)
(0.986448 -0.00013311 0)
(1.01202 0.000213263 0)
(0.98768 9.78685e-06 0)
(1.01023 0.000283108 0)
(0.98878 8.9388e-05 0)
(1.00858 0.000301442 0)
(0.989706 0.000114606 0)
(1.00708 0.000293295 0)
(0.99047 0.000132208 0)
(1.00566 0.000294152 0)
(0.991061 0.000167152 0)
(1.00432 0.000313854 0)
(0.991487 0.000213149 0)
(1.00305 0.000342619 0)
(0.991773 0.000260566 0)
(1.00184 0.000374454 0)
(0.991919 0.00031518 0)
(1.00066 0.00043596 0)
(0.991912 0.000436381 0)
(0.999495 0.000621161 0)
(0.991798 0.00071913 0)
(0.998413 0.000973367 0)
(0.99165 0.00114712 0)
(0.997421 0.00149202 0)
(0.99153 0.00184062 0)
(0.996876 0.0024097 0)
(0.987373 -0.000859346 0)
(1.01106 0.000736197 0)
(0.9898 -0.000721324 0)
(1.00916 0.000578473 0)
(0.991975 -0.000462202 0)
(1.00733 0.000449508 0)
(0.993803 -0.000422061 0)
(1.00568 0.000378824 0)
(0.994898 -0.000235861 0)
(1.00441 0.000294733 0)
(0.995913 -0.000202191 0)
(1.00334 0.000189967 0)
(0.996689 -0.000161071 0)
(1.00235 0.000141404 0)
(0.997233 -6.01923e-05 0)
(1.00134 0.000223001 0)
(0.997424 9.07377e-05 0)
(1.00049 0.000302302 0)
(0.997573 0.000169392 0)
(0.99981 0.000331121 0)
(0.997625 0.000200986 0)
(0.999235 0.000341375 0)
(0.997568 0.000232118 0)
(0.998687 0.000368352 0)
(0.997388 0.000289435 0)
(0.998134 0.000420004 0)
(0.997099 0.000364993 0)
(0.997561 0.000486678 0)
(0.996731 0.000452948 0)
(0.996977 0.000574116 0)
(0.9963 0.000577012 0)
(0.996386 0.000728876 0)
(0.99584 0.000811606 0)
(0.995823 0.00105182 0)
(0.995387 0.00124754 0)
(0.995302 0.00157617 0)
(0.994998 0.00186306 0)
(0.994971 0.0023029 0)
(0.994963 0.0027755 0)
(0.99532 0.00343923 0)
(0.996929 -0.000772117 0)
(1.00202 0.000624197 0)
(0.99768 -0.000620339 0)
(1.00135 0.000470517 0)
(0.998288 -0.000366014 0)
(1.00087 0.000340768 0)
(0.998791 -0.000314014 0)
(1.00027 0.00028931 0)
(0.998771 -0.000144163 0)
(0.999982 0.000199573 0)
(0.998907 -0.000111058 0)
(0.999724 0.000104621 0)
(0.998934 -7.2403e-05 0)
(0.999382 7.2687e-05 0)
(0.998838 3.69057e-05 0)
(0.998919 0.000176418 0)
(0.998516 0.000170951 0)
(0.998531 0.000257276 0)
(0.99827 0.000228192 0)
(0.998235 0.000287351 0)
(0.998028 0.000257159 0)
(0.997963 0.000311039 0)
(0.997763 0.00029497 0)
(0.997659 0.000355398 0)
(0.99744 0.000357303 0)
(0.997299 0.000422632 0)
(0.997049 0.000441789 0)
(0.996877 0.000509946 0)
(0.996611 0.000548653 0)
(0.996416 0.000635583 0)
(0.99614 0.000722703 0)
(0.995931 0.000865567 0)
(0.995666 0.00101402 0)
(0.995459 0.00119687 0)
(0.995212 0.00138259 0)
(0.995023 0.00160872 0)
(0.994844 0.00185706 0)
(0.994776 0.00215302 0)
(0.994828 0.00247071 0)
(0.995153 0.00281349 0)
(0.999547 -0.000764249 0)
(0.999863 0.000612008 0)
(0.999477 -0.000597371 0)
(0.999711 0.000460582 0)
(0.999475 -0.000345997 0)
(0.999657 0.000323244 0)
(0.999491 -0.000280214 0)
(0.999405 0.000291128 0)
(0.99924 -0.000114424 0)
(0.999277 0.000184594 0)
(0.999149 -7.89121e-05 0)
(0.999171 0.000100587 0)
(0.998977 -3.53691e-05 0)
(0.998882 8.36965e-05 0)
(0.998758 8.66635e-05 0)
(0.998543 0.000209844 0)
(0.99842 0.000220358 0)
(0.998261 0.000293103 0)
(0.998151 0.000277089 0)
(0.997996 0.000328129 0)
(0.99786 0.000307167 0)
(0.997717 0.000361252 0)
(0.997559 0.000358029 0)
(0.997406 0.000423173 0)
(0.997226 0.000441568 0)
(0.99706 0.000516609 0)
(0.996849 0.000558808 0)
(0.996666 0.000644346 0)
(0.996442 0.000715235 0)
(0.996255 0.000827406 0)
(0.996035 0.000947985 0)
(0.995847 0.00111389 0)
(0.995628 0.00128839 0)
(0.995438 0.00148653 0)
(0.995243 0.00169286 0)
(0.995101 0.00193319 0)
(0.995004 0.00219949 0)
(0.995011 0.00250336 0)
(0.995156 0.00282867 0)
(0.995548 0.00317158 0)
(0.999973 -0.000696712 0)
(0.999569 0.000536361 0)
(0.999713 -0.000514735 0)
(0.999526 0.000385906 0)
(0.999632 -0.00027164 0)
(0.99952 0.000248429 0)
(0.999515 -0.000198002 0)
(0.999368 0.000225451 0)
(0.999341 -3.68619e-05 0)
(0.999179 0.000122348 0)
(0.999154 -1.27541e-05 0)
(0.99912 5.96561e-05 0)
(0.998941 2.95125e-05 0)
(0.998779 6.82683e-05 0)
(0.998671 0.000123444 0)
(0.998481 0.000214562 0)
(0.998387 0.000248245 0)
(0.998262 0.000301043 0)
(0.998166 0.00031242 0)
(0.998017 0.000347346 0)
(0.997877 0.000351105 0)
(0.997714 0.000393955 0)
(0.997549 0.00041133 0)
(0.997367 0.000469804 0)
(0.997185 0.000505034 0)
(0.997003 0.000579092 0)
(0.996801 0.00064199 0)
(0.996618 0.000736605 0)
(0.996419 0.000840593 0)
(0.996243 0.000976974 0)
(0.996057 0.00113054 0)
(0.995888 0.00129466 0)
(0.995704 0.00146783 0)
(0.995538 0.00164819 0)
(0.995385 0.00184505 0)
(0.995277 0.00205263 0)
(0.995223 0.00227658 0)
(0.995259 0.00250523 0)
(0.995425 0.00273894 0)
(0.995816 0.00296335 0)
(1.00003 -0.000680804 0)
(0.999546 0.000516802 0)
(0.999735 -0.000480893 0)
(0.999518 0.000363509 0)
(0.99966 -0.000239695 0)
(0.999515 0.000228103 0)
(0.999492 -0.00015868 0)
(0.999381 0.000207407 0)
(0.999409 9.60448e-06 0)
(0.999176 0.00011104 0)
(0.999141 1.60471e-05 0)
(0.999122 6.08553e-05 0)
(0.998944 7.22104e-05 0)
(0.998763 9.43043e-05 0)
(0.998645 0.000160525 0)
(0.998469 0.000239781 0)
(0.998392 0.000282104 0)
(0.998277 0.000326636 0)
(0.998195 0.000353005 0)
(0.998052 0.000387025 0)
(0.997925 0.000408474 0)
(0.997758 0.000452371 0)
(0.9976 0.000487526 0)
(0.997408 0.000549458 0)
(0.997224 0.000599973 0)
(0.997035 0.000680261 0)
(0.996836 0.000763549 0)
(0.996656 0.000870995 0)
(0.996474 0.00100206 0)
(0.996316 0.00115481 0)
(0.996147 0.00132708 0)
(0.995986 0.00149293 0)
(0.995819 0.00166842 0)
(0.995675 0.00184048 0)
(0.995549 0.00202985 0)
(0.995471 0.00221767 0)
(0.995445 0.00241741 0)
(0.995511 0.00260953 0)
(0.995705 0.00280496 0)
(0.996123 0.00298861 0)
(1.00003 -0.000617203 0)
(0.99955 0.000447012 0)
(0.99974 -0.000401251 0)
(0.999526 0.000294441 0)
(0.999666 -0.000169833 0)
(0.999526 0.00016633 0)
(0.999489 -8.75856e-05 0)
(0.999374 0.000145099 0)
(0.999436 7.91946e-05 0)
(0.999209 8.57055e-05 0)
(0.999141 5.59881e-05 0)
(0.999101 5.3886e-05 0)
(0.998946 0.000100975 0)
(0.998775 0.000115337 0)
(0.99866 0.000196251 0)
(0.998487 0.000258033 0)
(0.998415 0.000307483 0)
(0.998291 0.000346704 0)
(0.998209 0.000383604 0)
(0.998066 0.000420202 0)
(0.997945 0.000455335 0)
(0.997786 0.00050502 0)
(0.997636 0.00055381 0)
(0.997455 0.000625446 0)
(0.997279 0.000689633 0)
(0.997097 0.000782135 0)
(0.996911 0.000886845 0)
(0.996741 0.00101271 0)
(0.996576 0.00116867 0)
(0.996428 0.00132456 0)
(0.996268 0.00149504 0)
(0.996116 0.00165247 0)
(0.995963 0.001826 0)
(0.995835 0.0019904 0)
(0.995728 0.00217046 0)
(0.995666 0.00233995 0)
(0.995654 0.00251564 0)
(0.995727 0.00267363 0)
(0.995924 0.0028256 0)
(0.996344 0.0029538 0)
(1.00004 -0.000589493 0)
(0.999561 0.000414055 0)
(0.999744 -0.000353825 0)
(0.999541 0.000259492 0)
(0.999665 -0.000128317 0)
(0.999542 0.000140467 0)
(0.999497 -3.85409e-05 0)
(0.999369 0.000120733 0)
(0.999434 0.00011661 0)
(0.999253 8.59129e-05 0)
(0.999165 8.00611e-05 0)
(0.999079 6.61021e-05 0)
(0.99894 0.000138424 0)
(0.998787 0.000144861 0)
(0.998684 0.000234196 0)
(0.99852 0.000282329 0)
(0.998448 0.00033913 0)
(0.998316 0.000376313 0)
(0.998228 0.000424851 0)
(0.998081 0.000460055 0)
(0.997957 0.000512988 0)
(0.997805 0.000563146 0)
(0.99766 0.000630013 0)
(0.997496 0.000706146 0)
(0.997336 0.000790811 0)
(0.997169 0.000895374 0)
(0.997005 0.00103059 0)
(0.996851 0.00117166 0)
(0.996704 0.00134143 0)
(0.996561 0.00149177 0)
(0.996411 0.00166544 0)
(0.996268 0.00181897 0)
(0.99613 0.00199577 0)
(0.996016 0.00215003 0)
(0.995922 0.00231598 0)
(0.995869 0.00245177 0)
(0.99586 0.00258612 0)
(0.995929 0.00268616 0)
(0.996111 0.00277982 0)
(0.996505 0.00285033 0)
(1.00004 -0.000527525 0)
(0.999575 0.000347027 0)
(0.999747 -0.000277152 0)
(0.999557 0.000198625 0)
(0.999665 -6.62233e-05 0)
(0.999555 8.9665e-05 0)
(0.999512 2.13108e-05 0)
(0.999375 8.20897e-05 0)
(0.999425 0.000159473 0)
(0.999277 8.88205e-05 0)
(0.999191 0.000107158 0)
(0.999072 7.36836e-05 0)
(0.99894 0.000177736 0)
(0.998802 0.00015977 0)
(0.998709 0.000275967 0)
(0.998555 0.000297862 0)
(0.998479 0.000381263 0)
(0.998344 0.000398909 0)
(0.998254 0.000478091 0)
(0.998106 0.00049316 0)
(0.997978 0.00058076 0)
(0.997833 0.000614061 0)
(0.997693 0.000717582 0)
(0.997543 0.000784942 0)
(0.997401 0.000912523 0)
(0.997254 0.00101593 0)
(0.997115 0.00118175 0)
(0.996972 0.00130747 0)
(0.996836 0.00148653 0)
(0.996702 0.0016191 0)
(0.996567 0.00181043 0)
(0.996438 0.00196632 0)
(0.996309 0.00217897 0)
(0.996195 0.00235416 0)
(0.996092 0.00256213 0)
(0.996018 0.0027151 0)
(0.99598 0.00287591 0)
(0.996019 0.0029645 0)
(0.99619 0.00300847 0)
(0.996624 0.00288587 0)
(1.00004 -0.000490075 0)
(0.999587 0.000304112 0)
(0.999754 -0.00022073 0)
(0.999571 0.000157853 0)
(0.99967 -2.1318e-05 0)
(0.999565 6.52312e-05 0)
(0.999526 6.7018e-05 0)
(0.999385 7.03421e-05 0)
(0.999431 0.0001669 0)
(0.999287 0.000102136 0)
(0.999215 0.000134563 0)
(0.999079 9.97561e-05 0)
(0.998953 0.000209772 0)
(0.998815 0.000192694 0)
(0.998736 0.00030668 0)
(0.998582 0.000329037 0)
(0.99851 0.000414596 0)
(0.998372 0.000436661 0)
(0.998286 0.000525085 0)
(0.998137 0.00054499 0)
(0.998013 0.000643528 0)
(0.997872 0.000685605 0)
(0.997745 0.000805422 0)
(0.997607 0.000893182 0)
(0.997487 0.00104198 0)
(0.99735 0.00115117 0)
(0.997225 0.00131151 0)
(0.99709 0.00142628 0)
(0.996972 0.00159923 0)
(0.996856 0.00172947 0)
(0.996752 0.00191864 0)
(0.996658 0.00206742 0)
(0.996571 0.00226373 0)
(0.996487 0.00241322 0)
(0.9964 0.00259248 0)
(0.996321 0.00272428 0)
(0.996248 0.00287178 0)
(0.996157 0.00295432 0)
(0.995974 0.0029943 0)
(0.995562 0.00286877 0)
(1.00005 -0.000429583 0)
(0.999607 0.0002399 0)
(0.999758 -0.000147784 0)
(0.999589 0.00010842 0)
(0.999675 2.75411e-05 0)
(0.999578 3.54677e-05 0)
(0.99954 9.05092e-05 0)
(0.999399 0.000100771 0)
(0.999438 0.000157284 0)
(0.999294 0.000128005 0)
(0.999229 0.000147701 0)
(0.999095 0.000138675 0)
(0.998972 0.000222558 0)
(0.998839 0.000238122 0)
(0.998766 0.000322133 0)
(0.998612 0.000376134 0)
(0.998539 0.000439865 0)
(0.998402 0.000490017 0)
(0.998319 0.000561969 0)
(0.998174 0.000614843 0)
(0.998057 0.000699337 0)
(0.997925 0.000780364 0)
(0.997816 0.000897199 0)
(0.997692 0.00101763 0)
(0.997581 0.00115067 0)
(0.997451 0.00127205 0)
(0.997336 0.00141149 0)
(0.997216 0.00153746 0)
(0.997114 0.00169064 0)
(0.997015 0.00182496 0)
(0.996922 0.00198001 0)
(0.996827 0.00210201 0)
(0.996725 0.00222874 0)
(0.996623 0.00232228 0)
(0.996525 0.00242746 0)
(0.99644 0.00251463 0)
(0.996354 0.00260944 0)
(0.996243 0.00267694 0)
(0.99605 0.00273769 0)
(0.995676 0.00277544 0)
(1.00005 -0.000385382 0)
(0.999633 0.000192553 0)
(0.999761 -9.21473e-05 0)
(0.999611 7.45138e-05 0)
(0.999679 6.25376e-05 0)
(0.999593 3.47202e-05 0)
(0.999558 9.05338e-05 0)
(0.999414 0.000121958 0)
(0.99945 0.000163424 0)
(0.999307 0.000152855 0)
(0.999243 0.000171186 0)
(0.999116 0.000173174 0)
(0.998996 0.000249293 0)
(0.998862 0.0002802 0)
(0.998797 0.000351165 0)
(0.998643 0.000415333 0)
(0.998571 0.000474838 0)
(0.99844 0.000538884 0)
(0.99836 0.00060972 0)
(0.998221 0.000685627 0)
(0.998114 0.000775365 0)
(0.997997 0.000881551 0)
(0.9979 0.00100173 0)
(0.997783 0.00112262 0)
(0.997678 0.0012467 0)
(0.997559 0.00136975 0)
(0.997454 0.00150838 0)
(0.997349 0.00163684 0)
(0.997256 0.00177625 0)
(0.997164 0.00188824 0)
(0.997068 0.00200515 0)
(0.996966 0.00209603 0)
(0.996865 0.00219878 0)
(0.996778 0.00229117 0)
(0.996703 0.00240216 0)
(0.996633 0.00250313 0)
(0.996547 0.00260795 0)
(0.996417 0.00269123 0)
(0.996191 0.00276545 0)
(0.995774 0.0028166 0)
(1.00005 -0.000328002 0)
(0.999661 0.000134329 0)
(0.999765 -2.56096e-05 0)
(0.999633 4.10368e-05 0)
(0.999689 8.35198e-05 0)
(0.999604 5.36471e-05 0)
(0.999577 8.97861e-05 0)
(0.999435 0.000131103 0)
(0.999464 0.00017435 0)
(0.999316 0.000176386 0)
(0.999257 0.000193349 0)
(0.999138 0.000207334 0)
(0.999023 0.000274097 0)
(0.998893 0.000317603 0)
(0.998833 0.000384481 0)
(0.998679 0.000455127 0)
(0.998608 0.000516823 0)
(0.998481 0.000592472 0)
(0.998408 0.000669507 0)
(0.998278 0.000762385 0)
(0.998184 0.00086609 0)
(0.998078 0.000978109 0)
(0.997988 0.00109385 0)
(0.99788 0.00120742 0)
(0.997783 0.00132614 0)
(0.997681 0.00143964 0)
(0.997586 0.00156645 0)
(0.997486 0.00168023 0)
(0.997385 0.00180646 0)
(0.997283 0.00191135 0)
(0.997182 0.00202414 0)
(0.997092 0.00211693 0)
(0.997011 0.0022226 0)
(0.996944 0.00231701 0)
(0.996881 0.00242119 0)
(0.996813 0.00251158 0)
(0.996721 0.00260216 0)
(0.996577 0.00267655 0)
(0.99634 0.00274739 0)
(0.995919 0.00280673 0)
(1.00005 -0.000280722 0)
(0.999694 8.82358e-05 0)
(0.999772 1.31595e-05 0)
(0.999651 3.6711e-05 0)
(0.999704 8.27511e-05 0)
(0.999618 7.77112e-05 0)
(0.999596 0.000102135 0)
(0.999456 0.00014388 0)
(0.999482 0.000179962 0)
(0.999334 0.000198846 0)
(0.999275 0.000223313 0)
(0.999164 0.000244103 0)
(0.999055 0.000307558 0)
(0.998924 0.000360061 0)
(0.998871 0.00042086 0)
(0.998719 0.000501208 0)
(0.998652 0.000561063 0)
(0.998533 0.000652966 0)
(0.998469 0.000740375 0)
(0.998351 0.000843717 0)
(0.998263 0.000953923 0)
(0.998163 0.0010609 0)
(0.998078 0.00117497 0)
(0.997977 0.00128461 0)
(0.997884 0.0014045 0)
(0.997787 0.00151249 0)
(0.997698 0.00163072 0)
(0.997611 0.00172991 0)
(0.997528 0.00183831 0)
(0.997443 0.00193212 0)
(0.997351 0.00203837 0)
(0.997261 0.00213502 0)
(0.997182 0.00224021 0)
(0.997117 0.00233583 0)
(0.997058 0.00243308 0)
(0.996991 0.00252003 0)
(0.996899 0.00260397 0)
(0.996754 0.00267942 0)
(0.996518 0.00275075 0)
(0.9961 0.00281661 0)
(1.00005 -0.000230395 0)
(0.999726 4.421e-05 0)
(0.999783 3.41949e-05 0)
(0.99967 5.10206e-05 0)
(0.999721 9.45202e-05 0)
(0.999633 9.5961e-05 0)
(0.999616 0.000117106 0)
(0.999478 0.00016037 0)
(0.999502 0.000191172 0)
(0.999353 0.000216761 0)
(0.999295 0.000249363 0)
(0.999191 0.000278097 0)
(0.999088 0.000340291 0)
(0.998961 0.000399513 0)
(0.998915 0.000461188 0)
(0.998764 0.000548492 0)
(0.998704 0.000618841 0)
(0.998595 0.000716943 0)
(0.998537 0.000817597 0)
(0.998427 0.00091819 0)
(0.998346 0.00102794 0)
(0.998254 0.00113027 0)
(0.998177 0.00124623 0)
(0.998087 0.00135629 0)
(0.998004 0.00147817 0)
(0.997916 0.001585 0)
(0.997828 0.00169746 0)
(0.997736 0.00178823 0)
(0.997644 0.00188174 0)
(0.997558 0.00196049 0)
(0.997481 0.00204988 0)
(0.997413 0.0021384 0)
(0.997354 0.00223705 0)
(0.997299 0.00233173 0)
(0.997246 0.00242544 0)
(0.99718 0.0025115 0)
(0.997089 0.00259199 0)
(0.996944 0.00266637 0)
(0.996709 0.00273473 0)
(0.996291 0.0027991 0)
(1.00005 -0.00018495 0)
(0.999761 6.62567e-06 0)
(0.9998 5.11185e-05 0)
(0.999689 6.79788e-05 0)
(0.999739 0.000101896 0)
(0.999649 0.000108834 0)
(0.999638 0.000130093 0)
(0.9995 0.000176199 0)
(0.999523 0.000206029 0)
(0.999378 0.000236194 0)
(0.999322 0.000279131 0)
(0.999222 0.000314365 0)
(0.999127 0.000377432 0)
(0.998999 0.000446935 0)
(0.998962 0.000506674 0)
(0.998818 0.000601644 0)
(0.998763 0.000683163 0)
(0.998667 0.000782168 0)
(0.998612 0.000885995 0)
(0.99851 0.000985357 0)
(0.998434 0.00109477 0)
(0.998351 0.00119529 0)
(0.998284 0.00130894 0)
(0.998202 0.00141443 0)
(0.998122 0.00152727 0)
(0.998033 0.00162385 0)
(0.997942 0.00172379 0)
(0.997852 0.00181015 0)
(0.997771 0.00190343 0)
(0.997699 0.0019913 0)
(0.997639 0.00208618 0)
(0.997586 0.00217848 0)
(0.99754 0.00227276 0)
(0.997492 0.00236297 0)
(0.997443 0.00244914 0)
(0.997376 0.00253004 0)
(0.997286 0.00260414 0)
(0.997139 0.00267407 0)
(0.996905 0.00273703 0)
(0.996486 0.00279739 0)
(1.00005 -0.000143869 0)
(0.999793 -2.07081e-05 0)
(0.999822 5.89099e-05 0)
(0.999709 8.44121e-05 0)
(0.999757 0.000115262 0)
(0.999667 0.000125071 0)
(0.999661 0.000147318 0)
(0.999526 0.000191688 0)
(0.999548 0.000226904 0)
(0.999404 0.000260158 0)
(0.99935 0.000307545 0)
(0.999255 0.000350662 0)
(0.999168 0.000414816 0)
(0.999045 0.000492724 0)
(0.999015 0.000559486 0)
(0.998881 0.000657051 0)
(0.99883 0.000749836 0)
(0.998741 0.000845353 0)
(0.998692 0.000948244 0)
(0.998597 0.00104608 0)
(0.998527 0.00115507 0)
(0.998452 0.00125426 0)
(0.998393 0.00136408 0)
(0.998317 0.00146548 0)
(0.99824 0.00157242 0)
(0.998156 0.00166444 0)
(0.998073 0.00175986 0)
(0.997991 0.00184804 0)
(0.997918 0.00194239 0)
(0.997855 0.00203276 0)
(0.997806 0.00212507 0)
(0.99776 0.00221347 0)
(0.997722 0.00229977 0)
(0.997679 0.00238225 0)
(0.997633 0.00245963 0)
(0.997567 0.00253341 0)
(0.997478 0.00260067 0)
(0.997331 0.00266518 0)
(0.997098 0.00272305 0)
(0.996679 0.00277907 0)
(1.00005 -0.000106686 0)
(0.999826 -4.3397e-05 0)
(0.999849 6.4823e-05 0)
(0.999729 0.000101267 0)
(0.999777 0.000129326 0)
(0.999685 0.000143455 0)
(0.999684 0.000166538 0)
(0.999551 0.000208255 0)
(0.999572 0.000244425 0)
(0.999434 0.000282618 0)
(0.999384 0.000336472 0)
(0.999294 0.000386916 0)
(0.999217 0.000455956 0)
(0.999094 0.000542606 0)
(0.999073 0.000615351 0)
(0.998949 0.000716384 0)
(0.998901 0.000810739 0)
(0.99882 0.000903795 0)
(0.998776 0.00100571 0)
(0.998691 0.00110174 0)
(0.998626 0.00121099 0)
(0.998558 0.00130795 0)
(0.998507 0.001415 0)
(0.998439 0.00151176 0)
(0.998364 0.00161607 0)
(0.998279 0.00170541 0)
(0.998201 0.00179687 0)
(0.998128 0.00188097 0)
(0.99807 0.00197069 0)
(0.998017 0.00205747 0)
(0.997977 0.00214504 0)
(0.997937 0.0022288 0)
(0.997905 0.00230896 0)
(0.997864 0.00238567 0)
(0.997823 0.00245678 0)
(0.997758 0.00252524 0)
(0.997672 0.00258727 0)
(0.997525 0.00264744 0)
(0.997294 0.00270108 0)
(0.996875 0.00275345 0)
(1.00005 -7.58055e-05 0)
(0.999855 -4.55524e-05 0)
(0.999881 5.75979e-05 0)
(0.999752 0.000111127 0)
(0.999795 0.000144786 0)
(0.999704 0.000161154 0)
(0.999708 0.000187875 0)
(0.999578 0.000229595 0)
(0.999601 0.000266241 0)
(0.999466 0.000310209 0)
(0.99942 0.000368378 0)
(0.999335 0.000426414 0)
(0.999269 0.000498829 0)
(0.999153 0.00059396 0)
(0.999138 0.000670175 0)
(0.999022 0.000770164 0)
(0.998976 0.000868775 0)
(0.998901 0.000957189 0)
(0.998865 0.0010601 0)
(0.998788 0.00115395 0)
(0.998731 0.00126248 0)
(0.998668 0.00135704 0)
(0.998623 0.0014593 0)
(0.998562 0.00155047 0)
(0.998493 0.00164907 0)
(0.998412 0.00173731 0)
(0.998339 0.0018273 0)
(0.998274 0.00191079 0)
(0.998226 0.00199618 0)
(0.998182 0.00207949 0)
(0.99815 0.00216137 0)
(0.998115 0.00224091 0)
(0.998088 0.00231526 0)
(0.99805 0.00238737 0)
(0.998012 0.00245272 0)
(0.997949 0.00251659 0)
(0.997864 0.00257337 0)
(0.997719 0.00262937 0)
(0.997488 0.00267845 0)
(0.997069 0.00272716 0)
(1.00005 -5.30386e-05 0)
(0.999879 -2.91232e-05 0)
(0.999909 4.22233e-05 0)
(0.999775 0.000113345 0)
(0.999815 0.000159701 0)
(0.999722 0.000182698 0)
(0.999729 0.000212061 0)
(0.999602 0.000255327 0)
(0.999626 0.000291231 0)
(0.999499 0.000339866 0)
(0.999458 0.000403431 0)
(0.999379 0.000467387 0)
(0.999326 0.000543022 0)
(0.999211 0.000642605 0)
(0.999202 0.000721323 0)
(0.999098 0.000814151 0)
(0.999052 0.000919515 0)
(0.998985 0.00100594 0)
(0.998956 0.00110834 0)
(0.998889 0.00120146 0)
(0.998838 0.00130767 0)
(0.998779 0.00140101 0)
(0.99874 0.00149884 0)
(0.998685 0.00158673 0)
(0.998623 0.00167886 0)
(0.998546 0.0017643 0)
(0.99848 0.00184948 0)
(0.998421 0.00193125 0)
(0.998383 0.00201158 0)
(0.998347 0.00209177 0)
(0.998323 0.00216781 0)
(0.998293 0.00224358 0)
(0.99827 0.0023122 0)
(0.998234 0.00238028 0)
(0.998198 0.00244014 0)
(0.998136 0.00249993 0)
(0.998053 0.00255168 0)
(0.997908 0.00260388 0)
(0.99768 0.00264858 0)
(0.997261 0.00269394 0)
(1.00005 -3.2643e-05 0)
(0.999896 -1.67091e-05 0)
(0.999936 3.78128e-05 0)
(0.999802 0.000113078 0)
(0.999833 0.000172437 0)
(0.999738 0.000202475 0)
(0.99975 0.000236341 0)
(0.999624 0.000283224 0)
(0.999652 0.000321363 0)
(0.999532 0.000375592 0)
(0.999498 0.000441113 0)
(0.999424 0.000509922 0)
(0.999382 0.000584394 0)
(0.999275 0.000681604 0)
(0.999265 0.000770279 0)
(0.999176 0.00085409 0)
(0.999134 0.000964329 0)
(0.99907 0.0010536 0)
(0.99905 0.00115296 0)
(0.998991 0.00124653 0)
(0.998948 0.00134779 0)
(0.998893 0.00144161 0)
(0.998857 0.0015336 0)
(0.998807 0.00161913 0)
(0.998752 0.00170297 0)
(0.998681 0.00178495 0)
(0.998622 0.00186436 0)
(0.99857 0.00194418 0)
(0.998541 0.00201975 0)
(0.998512 0.00209681 0)
(0.998496 0.00216758 0)
(0.998469 0.00223925 0)
(0.99845 0.00230273 0)
(0.998415 0.00236648 0)
(0.998381 0.00242159 0)
(0.998319 0.00247709 0)
(0.998238 0.00252457 0)
(0.998093 0.00257276 0)
(0.997866 0.00261378 0)
(0.997447 0.00265556 0)
(1.00005 -1.76774e-05 0)
(0.999909 -2.90226e-06 0)
(0.999957 4.83271e-05 0)
(0.999826 0.000108417 0)
(0.999855 0.00017671 0)
(0.999756 0.000220835 0)
(0.999771 0.000261379 0)
(0.999647 0.000314239 0)
(0.999677 0.000354402 0)
(0.999567 0.000411745 0)
(0.999538 0.00047972 0)
(0.99947 0.000547429 0)
(0.99944 0.00062807 0)
(0.999341 0.000718021 0)
(0.999331 0.000814984 0)
(0.999254 0.000898427 0)
(0.999222 0.00100197 0)
(0.999159 0.00109892 0)
(0.999146 0.00119325 0)
(0.999095 0.00128785 0)
(0.99906 0.00138287 0)
(0.999008 0.00147511 0)
(0.998975 0.00156156 0)
(0.998926 0.00164269 0)
(0.998878 0.00171969 0)
(0.998813 0.00179652 0)
(0.998764 0.00187149 0)
(0.99872 0.00194789 0)
(0.9987 0.00202014 0)
(0.998677 0.00209305 0)
(0.998667 0.00215977 0)
(0.998644 0.00222643 0)
(0.998627 0.00228573 0)
(0.998593 0.00234452 0)
(0.99856 0.00239585 0)
(0.998499 0.00244678 0)
(0.998418 0.00249093 0)
(0.998275 0.00253499 0)
(0.998048 0.0025731 0)
(0.99763 0.0026112 0)
(1.00005 -5.33552e-06 0)
(0.999919 1.14006e-05 0)
(0.999974 5.78165e-05 0)
(0.999849 0.000110914 0)
(0.999877 0.000179519 0)
(0.999774 0.000234364 0)
(0.999793 0.000283419 0)
(0.999669 0.000344637 0)
(0.999703 0.000388495 0)
(0.999601 0.000449096 0)
(0.999577 0.000520529 0)
(0.999517 0.000584833 0)
(0.999496 0.000670638 0)
(0.999409 0.000755389 0)
(0.999403 0.000852062 0)
(0.999331 0.000942913 0)
(0.999312 0.00103649 0)
(0.999252 0.00113722 0)
(0.999244 0.00122861 0)
(0.999201 0.00132164 0)
(0.999171 0.00141195 0)
(0.999123 0.00149872 0)
(0.99909 0.00158059 0)
(0.999044 0.0016555 0)
(0.999001 0.00172871 0)
(0.998946 0.00180062 0)
(0.998907 0.00187318 0)
(0.998872 0.00194529 0)
(0.998859 0.00201496 0)
(0.998842 0.00208291 0)
(0.998836 0.00214611 0)
(0.998815 0.00220729 0)
(0.998801 0.00226279 0)
(0.998768 0.0023164 0)
(0.998736 0.00236426 0)
(0.998674 0.00241063 0)
(0.998595 0.00245174 0)
(0.998452 0.00249179 0)
(0.998226 0.00252719 0)
(0.997808 0.00256177 0)
(1.00005 2.94893e-06 0)
(0.999927 2.70428e-05 0)
(0.999988 6.88644e-05 0)
(0.999867 0.000119805 0)
(0.999899 0.000183234 0)
(0.999795 0.000244968 0)
(0.999817 0.000300996 0)
(0.999693 0.00037243 0)
(0.999728 0.000422831 0)
(0.999637 0.000483385 0)
(0.999616 0.000562779 0)
(0.999564 0.000622205 0)
(0.999556 0.000708478 0)
(0.999474 0.000796047 0)
(0.99948 0.000881697 0)
(0.999411 0.000981572 0)
(0.999401 0.001069 0)
(0.999349 0.00116716 0)
(0.999344 0.00125829 0)
(0.999307 0.00134591 0)
(0.999281 0.00143444 0)
(0.999235 0.00151282 0)
(0.999202 0.00159111 0)
(0.999159 0.00165917 0)
(0.999124 0.00173041 0)
(0.999079 0.00179813 0)
(0.999051 0.00186862 0)
(0.999024 0.00193645 0)
(0.999018 0.00200257 0)
(0.999005 0.00206568 0)
(0.999003 0.00212449 0)
(0.998984 0.00218085 0)
(0.998971 0.00223193 0)
(0.998938 0.00228123 0)
(0.998907 0.00232508 0)
(0.998845 0.00236776 0)
(0.998766 0.00240534 0)
(0.998624 0.00244222 0)
(0.998398 0.0024745 0)
(0.99798 0.00250633 0)
(1.00005 1.00602e-05 0)
(0.999932 4.02925e-05 0)
(0.999999 8.19392e-05 0)
(0.999884 0.000130795 0)
(0.999918 0.000192167 0)
(0.999815 0.00025426 0)
(0.999843 0.0003142 0)
(0.999721 0.000393081 0)
(0.999754 0.00045553 0)
(0.999675 0.000516232 0)
(0.999656 0.000602921 0)
(0.999609 0.000664791 0)
(0.999617 0.000742039 0)
(0.999538 0.000835407 0)
(0.999555 0.000911808 0)
(0.999496 0.00100873 0)
(0.999489 0.00109861 0)
(0.999448 0.00118797 0)
(0.999444 0.00128003 0)
(0.999414 0.0013598 0)
(0.999389 0.00144678 0)
(0.999343 0.00151829 0)
(0.999312 0.00159286 0)
(0.999273 0.00165697 0)
(0.999249 0.00172536 0)
(0.999213 0.00179102 0)
(0.999196 0.00185776 0)
(0.999174 0.0019226 0)
(0.999175 0.00198335 0)
(0.999163 0.0020426 0)
(0.999165 0.0020957 0)
(0.999146 0.0021484 0)
(0.999135 0.00219436 0)
(0.999102 0.00224051 0)
(0.999072 0.0022799 0)
(0.99901 0.00231984 0)
(0.998932 0.00235351 0)
(0.99879 0.00238798 0)
(0.998564 0.00241686 0)
(0.998147 0.00244659 0)
(1.00005 1.52811e-05 0)
(0.999936 5.17965e-05 0)
(1.00001 9.59834e-05 0)
(0.999897 0.000143778 0)
(0.999936 0.000203921 0)
(0.999835 0.0002685 0)
(0.99987 0.000327505 0)
(0.999753 0.000407566 0)
(0.999783 0.000481731 0)
(0.999715 0.000542086 0)
(0.999702 0.000634137 0)
(0.999652 0.000706745 0)
(0.999677 0.000773629 0)
(0.999604 0.000868898 0)
(0.999626 0.000942924 0)
(0.999583 0.00102829 0)
(0.999579 0.00112095 0)
(0.999545 0.00120121 0)
(0.999543 0.00129075 0)
(0.999518 0.00136283 0)
(0.999496 0.00144493 0)
(0.99945 0.00151337 0)
(0.999423 0.00158372 0)
(0.999388 0.00164715 0)
(0.999375 0.00171053 0)
(0.999348 0.0017749 0)
(0.999341 0.00183554 0)
(0.999323 0.00189786 0)
(0.999328 0.00195185 0)
(0.999317 0.00200767 0)
(0.999322 0.0020543 0)
(0.999304 0.00210362 0)
(0.999295 0.00214416 0)
(0.999262 0.00218736 0)
(0.999232 0.0022223 0)
(0.999171 0.00225957 0)
(0.999093 0.00228949 0)
(0.99895 0.00232148 0)
(0.998726 0.00234714 0)
(0.998308 0.0023746 0)
(1.00005 1.97556e-05 0)
(0.999939 6.26045e-05 0)
(1.00001 0.000109523 0)
(0.999909 0.000159431 0)
(0.999953 0.000218503 0)
(0.999853 0.000285577 0)
(0.999895 0.000345797 0)
(0.999788 0.000422538 0)
(0.999816 0.000503143 0)
(0.999757 0.000565416 0)
(0.999755 0.000652703 0)
(0.999698 0.000737262 0)
(0.999735 0.000800599 0)
(0.999673 0.000890558 0)
(0.999693 0.000970665 0)
(0.999666 0.0010448 0)
(0.999668 0.00113567 0)
(0.999639 0.00121205 0)
(0.999639 0.00129692 0)
(0.999617 0.00136676 0)
(0.999603 0.00144166 0)
(0.999558 0.00151099 0)
(0.999535 0.00157735 0)
(0.999503 0.00164229 0)
(0.999501 0.00170061 0)
(0.99948 0.00176335 0)
(0.999482 0.00181812 0)
(0.999466 0.00187751 0)
(0.999473 0.00192623 0)
(0.999463 0.00197847 0)
(0.99947 0.00202039 0)
(0.999453 0.00206591 0)
(0.999446 0.0021026 0)
(0.999414 0.00214239 0)
(0.999384 0.00217442 0)
(0.999323 0.00220872 0)
(0.999245 0.00223635 0)
(0.999102 0.00226565 0)
(0.998877 0.00228943 0)
(0.99846 0.00231441 0)
(1.00005 2.28822e-05 0)
(0.999942 7.10078e-05 0)
(1.00002 0.000121718 0)
(0.999919 0.000174121 0)
(0.999969 0.000233804 0)
(0.999872 0.000303075 0)
(0.999918 0.000366666 0)
(0.999822 0.000440129 0)
(0.99985 0.000522715 0)
(0.999796 0.00058815 0)
(0.999809 0.000665983 0)
(0.999749 0.000753797 0)
(0.999791 0.000819132 0)
(0.999745 0.000897239 0)
(0.999763 0.000980075 0)
(0.999746 0.00104585 0)
(0.999759 0.00112606 0)
(0.999735 0.00119724 0)
(0.999739 0.00127267 0)
(0.999717 0.00134031 0)
(0.999712 0.00140523 0)
(0.99967 0.00147279 0)
(0.999654 0.00153328 0)
(0.999622 0.00159754 0)
(0.999626 0.00165073 0)
(0.999611 0.00170971 0)
(0.999621 0.0017588 0)
(0.999607 0.00181338 0)
(0.999617 0.00185779 0)
(0.999607 0.00190537 0)
(0.999614 0.00194378 0)
(0.999599 0.00198454 0)
(0.999594 0.00201827 0)
(0.999564 0.00205369 0)
(0.999535 0.00208357 0)
(0.999474 0.00211416 0)
(0.999396 0.00214028 0)
(0.999254 0.00216642 0)
(0.999028 0.00218911 0)
(0.998611 0.00221145 0)
(1.00005 2.65081e-05 0)
(0.999945 7.97401e-05 0)
(1.00003 0.000133782 0)
(0.999929 0.000188979 0)
(0.999986 0.000248979 0)
(0.999893 0.000318444 0)
(0.999943 0.000385129 0)
(0.999856 0.000456046 0)
(0.999887 0.000538131 0)
(0.999835 0.000608866 0)
(0.999861 0.000681505 0)
(0.999803 0.000768175 0)
(0.999843 0.000840913 0)
(0.999811 0.000913154 0)
(0.999829 0.00099745 0)
(0.999813 0.00106701 0)
(0.999836 0.001142 0)
(0.999817 0.00121388 0)
(0.999828 0.00128447 0)
(0.999806 0.00135319 0)
(0.999809 0.00141319 0)
(0.999775 0.00147792 0)
(0.999766 0.00153464 0)
(0.999737 0.00159603 0)
(0.999745 0.00164687 0)
(0.999734 0.00170096 0)
(0.999748 0.00174666 0)
(0.999739 0.00179534 0)
(0.99975 0.00183713 0)
(0.999741 0.00187975 0)
(0.999747 0.00191632 0)
(0.999734 0.00195239 0)
(0.999729 0.001984 0)
(0.999702 0.0020146 0)
(0.999674 0.00204201 0)
(0.999616 0.00206792 0)
(0.999537 0.00209145 0)
(0.999397 0.00211317 0)
(0.999172 0.00213323 0)
(0.998756 0.00215143 0)
(1.00005 2.60709e-05 0)
(0.999947 8.69113e-05 0)
(1.00003 0.000144123 0)
(0.999937 0.000205416 0)
(1 0.000265021 0)
(0.999911 0.000334558 0)
(0.999965 0.000401506 0)
(0.999888 0.000469739 0)
(0.999925 0.000546289 0)
(0.999875 0.000617989 0)
(0.999913 0.00068408 0)
(0.999864 0.000760225 0)
(0.999905 0.000829563 0)
(0.999884 0.000891486 0)
(0.999912 0.0009603 0)
(0.999899 0.00102258 0)
(0.99993 0.00108186 0)
(0.999916 0.00114238 0)
(0.999932 0.00119949 0)
(0.999909 0.00126127 0)
(0.999915 0.00131691 0)
(0.999885 0.00137927 0)
(0.999883 0.00143646 0)
(0.999857 0.00149653 0)
(0.999865 0.00154728 0)
(0.999857 0.00159658 0)
(0.999873 0.00163892 0)
(0.999869 0.00168105 0)
(0.999882 0.00171992 0)
(0.999875 0.00175852 0)
(0.99988 0.00179509 0)
(0.999867 0.00183036 0)
(0.999859 0.00186423 0)
(0.999831 0.00189617 0)
(0.9998 0.00192717 0)