/*--------------------------------*- C++ -*----------------------------------*\
| =========                 |                                                 |
| \\      /  F ield         | OpenFOAM: The Open Source CFD Toolbox           |
|  \\    /   O peration     | Version:  2312                                  |
|   \\  /    A nd           | Website:  www.openfoam.com                      |
|    \\/     M anipulation  |                                                 |
\*---------------------------------------------------------------------------*/
FoamFile
{
    version     2.0;
    format      ascii;
    arch        "LSB;label=32;scalar=64";
    class       volScalarField;
    location    "0.3";
    object      p;
}
// * * * * * * * * * * * * * * * * * * * * * * * * * * * * * * * * * * * * * //

dimensions      [0 2 -2 0 0 0 0];

internalField   nonuniform List<scalar> 
5600
(
3.77021e-09
0.000447192
0.000276772
0.000430875
0.000315927
0.00052067
0.000457959
0.000595762
0.000628571
0.000714091
0.000777238
0.000898155
0.000947373
0.00106725
0.0011599
0.00127421
0.00136696
0.0014844
0.00164022
0.00176782
0.00188081
0.00204203
0.00220937
0.00236327
0.00252378
0.00271431
0.00291097
0.00309727
0.00329164
0.00350258
0.00372783
0.00396846
0.00421376
0.0044557
0.00469263
0.00493367
0.00518947
0.00544699
0.00563124
0.00557374
2.39911e-06
0.000444538
0.000278817
0.000427901
0.000319404
0.000515365
0.000460806
0.000590936
0.000630121
0.000710042
0.000777468
0.000893866
0.000947736
0.00106274
0.00116009
0.00127081
0.00136582
0.00148089
0.00163669
0.0017645
0.00187556
0.00203756
0.00220373
0.00235451
0.00251362
0.00269986
0.00289815
0.00308095
0.00327582
0.00348053
0.00369066
0.0038993
0.00410248
0.00430308
0.00450347
0.00469699
0.00485745
0.00494139
0.00487652
0.00454269
4.64122e-06
0.000442952
0.000279994
0.000426647
0.000320897
0.000513338
0.000461787
0.000588038
0.000630331
0.000708125
0.000777581
0.000891825
0.000947568
0.00106081
0.00115974
0.00126887
0.00136424
0.00147946
0.00163394
0.00176175
0.00187146
0.00203322
0.00219778
0.00234778
0.00250546
0.00268942
0.00288419
0.00306526
0.00324912
0.00344366
0.00364323
0.00383885
0.00402584
0.00420799
0.00438695
0.00455349
0.00468077
0.0047321
0.00464674
0.00432124
8.32905e-06
0.000439078
0.000282669
0.0004228
0.000324964
0.000507141
0.000464775
0.000582838
0.000633169
0.000702821
0.000778224
0.000886502
0.000948048
0.00105542
0.00115943
0.00126405
0.00136229
0.00147576
0.0016285
0.0017567
0.00186479
0.00202363
0.00218901
0.0023357
0.00249087
0.00267117
0.0028655
0.00304167
0.00321243
0.00338564
0.00356136
0.00373856
0.00391496
0.00408274
0.00423415
0.00435747
0.00442885
0.00441254
0.00425452
0.00386277
1.17367e-05
0.000435448
0.000284916
0.000420057
0.00032791
0.000502759
0.000466803
0.000578014
0.000633576
0.000699377
0.000778161
0.00088278
0.000947501
0.00105181
0.00115755
0.00126088
0.00135866
0.00147202
0.00162323
0.00175063
0.00185686
0.00201395
0.00217719
0.00232109
0.00247264
0.0026479
0.00283493
0.00300062
0.00315635
0.00331408
0.00347694
0.00364193
0.00380399
0.00395309
0.00407942
0.00417154
0.00420917
0.00416247
0.00398426
0.0035902
1.64228e-05
0.000429668
0.000288752
0.00041493
0.000333065
0.000494879
0.000470773
0.00057138
0.000637888
0.000693456
0.000778159
0.000877277
0.000945776
0.00104828
0.00115424
0.00125636
0.00135396
0.00146572
0.00161539
0.00174201
0.00184571
0.00199992
0.00216139
0.0023012
0.00244787
0.00261555
0.00279234
0.00294379
0.00308199
0.00322726
0.00338232
0.0035372
0.00368442
0.00381517
0.00392086
0.00399131
0.00400823
0.00394348
0.00375031
0.00334181
2.1111e-05
0.000423551
0.000292307
0.000410554
0.000337472
0.000488003
0.000473607
0.000565
0.000637272
0.000688717
0.000776359
0.000874117
0.000942679
0.00104432
0.00114979
0.00125081
0.00134833
0.0014584
0.00160654
0.001732
0.00183184
0.00198303
0.00214148
0.00227508
0.00241461
0.00257218
0.00273476
0.0028706
0.00299715
0.00313428
0.00328058
0.00342405
0.00355647
0.00367121
0.00376167
0.00381987
0.0038289
0.00376032
0.0035657
0.00315452
2.71551e-05
0.000415047
0.000297589
0.000403837
0.000344001
0.000478083
0.000478471
0.00055714
0.000638021
0.000684402
0.000772215
0.0008711
0.000938373
0.00103891
0.00114467
0.00124339
0.00134122
0.0014491
0.00159368
0.00171939
0.00181466
0.0019605
0.00211562
0.00224107
0.00236976
0.00251448
0.00266178
0.00278622
0.00290448
0.0030332
0.00316867
0.00329985
0.00341896
0.00352192
0.00360231
0.00365378
0.00366043
0.00359629
0.00341472
0.00302819
3.34723e-05
0.000405657
0.000302686
0.000397728
0.000349619
0.000468732
0.000481292
0.000549827
0.000637365
0.000680804
0.000767062
0.000867481
0.00093348
0.00103229
0.00113864
0.0012345
0.00133249
0.0014383
0.00157824
0.00170378
0.00179462
0.00193201
0.00208345
0.00219778
0.00231055
0.00244251
0.00257907
0.00269515
0.00280309
0.00291848
0.00303917
0.00315789
0.00327038
0.00337605
0.00346998
0.00354436
0.00358077
0.00354629
0.00337684
0.00294939
4.1246e-05
0.000393619
0.000309319
0.0003896
0.000357269
0.000457206
0.000485806
0.000541187
0.000634715
0.00067791
0.000760587
0.000862826
0.000927962
0.00102398
0.00113195
0.00122357
0.00132064
0.0014255
0.00155968
0.00168237
0.00176983
0.00189528
0.00203814
0.00214243
0.00224151
0.00236454
0.00249335
0.0025997
0.0026934
0.00278878
0.00288311
0.00296791
0.00304285
0.00311789
0.00319865
0.00327764
0.00335168
0.00344518
0.00362758
0.00403932
4.9558e-05
0.000380152
0.000315917
0.000382023
0.000363119
0.000446293
0.000487285
0.000536646
0.00062978
0.000674154
0.000753215
0.000857138
0.000921698
0.00101372
0.00112312
0.00121174
0.00130549
0.00140975
0.00153781
0.00165537
0.00173842
0.00184919
0.00197977
0.00207962
0.00216916
0.00228109
0.00240054
0.00249664
0.00257604
0.00265687
0.00274338
0.00283135
0.00292155
0.00301557
0.00310719
0.00319297
0.00328044
0.00339477
0.00358741
0.00395963
5.93877e-05
0.000363875
0.000322996
0.000374063
0.000370111
0.000436722
0.000483637
0.000532652
0.000622471
0.000670396
0.000744695
0.000849829
0.000915551
0.0010017
0.00111161
0.00119859
0.00128642
0.00138929
0.00151153
0.00162017
0.00169619
0.00179454
0.00191313
0.00201093
0.00209257
0.00219081
0.00229949
0.00238818
0.00246013
0.00253712
0.00263182
0.00273282
0.00282317
0.00289827
0.00296464
0.00303386
0.00312191
0.00325527
0.00348199
0.00389761
6.98864e-05
0.000346167
0.000329858
0.00036638
0.000372297
0.000431072
0.000479188
0.00052727
0.000615748
0.000666143
0.000735013
0.000840307
0.00090814
0.000987962
0.00109664
0.00118306
0.00126433
0.00136259
0.00147918
0.00157765
0.00164525
0.00173588
0.00184248
0.00193535
0.00201055
0.00209345
0.00219352
0.0022859
0.00236773
0.00244965
0.00253921
0.00262579
0.00269863
0.00275851
0.00281599
0.00288512
0.0029819
0.00312907
0.00336871
0.00378742
8.18425e-05
0.000325394
0.000334898
0.000363066
0.000372034
0.000425489
0.0004738
0.000520075
0.000606759
0.000660807
0.000724729
0.000828224
0.000899047
0.000972737
0.00107786
0.00116429
0.00123844
0.0013283
0.00143903
0.00152954
0.00158723
0.00167168
0.00176856
0.00185424
0.00192815
0.00200432
0.00209857
0.00218933
0.00226965
0.00234452
0.00242172
0.00249618
0.00256039
0.0026157
0.00267154
0.00274104
0.00283879
0.00298671
0.00322539
0.0036413
9.43335e-05
0.000305852
0.000336541
0.000359222
0.000369106
0.000419839
0.000469846
0.000512933
0.000595292
0.000654294
0.000713942
0.000813228
0.000887514
0.000955674
0.00105467
0.00114072
0.00120864
0.00128767
0.00139102
0.00147784
0.00152575
0.00160088
0.00169148
0.00176924
0.00184134
0.00191496
0.00200494
0.00209275
0.00216799
0.00223438
0.00229938
0.00236254
0.00241895
0.00247035
0.00252463
0.00259343
0.00269009
0.00283618
0.00307285
0.0034877
0.000107708
0.00028611
0.000332503
0.000356733
0.000368182
0.000412916
0.000464619
0.000505929
0.000581376
0.000644482
0.000702091
0.000795854
0.000872765
0.000936545
0.00102666
0.00111101
0.00117502
0.0012422
0.00133556
0.00142105
0.00146125
0.00152328
0.00160967
0.00168185
0.00175194
0.00182642
0.0019128
0.0019928
0.00205815
0.00211523
0.00217076
0.00222553
0.00227526
0.0023223
0.00237391
0.00244127
0.00253701
0.00268223
0.00291772
0.00333121
0.000121297
0.000267987
0.000324506
0.000353137
0.000366273
0.00040542
0.000457595
0.000499458
0.000567177
0.000631534
0.000688138
0.000775649
0.000853791
0.000914638
0.000994733
0.00107432
0.00113653
0.0011944
0.00127393
0.00135707
0.0013947
0.00144205
0.00152355
0.00159487
0.00166137
0.00173359
0.00181414
0.00188618
0.00194096
0.00198831
0.00203589
0.00208467
0.00212986
0.00217327
0.0022218
0.00228684
0.00238128
0.00252605
0.00276146
0.0031748
0.000134923
0.000250756
0.000311856
0.000347681
0.000364923
0.000399062
0.000448359
0.000491395
0.000553081
0.000615992
0.000671014
0.000752103
0.000830398
0.000889156
0.00095932
0.00103144
0.00109187
0.00114348
0.00120775
0.00128528
0.00132482
0.00135923
0.00143126
0.00150383
0.00156845
0.00163519
0.00170782
0.00177332
0.00182031
0.00185813
0.00189694
0.00194014
0.00198277
0.00202433
0.00207041
0.00213254
0.00222467
0.00236817
0.0026031
0.00301623
0.000147961
0.000236085
0.000295289
0.000339303
0.000361977
0.000393009
0.000438239
0.000481284
0.000537821
0.000598358
0.000651238
0.000724778
0.000801579
0.000858824
0.000920263
0.000984088
0.00104057
0.00108841
0.00113946
0.00120661
0.00124903
0.00127548
0.00133481
0.00140681
0.00147149
0.00153265
0.00159612
0.00165478
0.00169616
0.00172631
0.00175657
0.00179346
0.00183366
0.00187455
0.0019194
0.00197886
0.00206816
0.0022098
0.00244428
0.00285778
0.000157909
0.000224223
0.000279115
0.000326754
0.000355996
0.000386321
0.000427786
0.00046939
0.000520893
0.000578192
0.00062874
0.000693816
0.000766941
0.000823256
0.00087705
0.000932339
0.000983625
0.00102828
0.00106903
0.00112264
0.00116528
0.00118949
0.00123616
0.00130344
0.00136865
0.00142663
0.0014815
0.00153185
0.00156805
0.00159262
0.00161578
0.00164593
0.00168264
0.00172277
0.00176753
0.0018257
0.00191273
0.00205227
0.0022858
0.00269938
0.000165086
0.000216029
0.00026256
0.000309146
0.000346116
0.000378202
0.000416882
0.000456286
0.000502194
0.000554745
0.000602996
0.000659924
0.000726094
0.000781452
0.000829381
0.000875866
0.000921134
0.000962644
0.000996239
0.00103592
0.00107422
0.00109897
0.00113662
0.00119634
0.00126016
0.00131622
0.00136417
0.00140604
0.0014368
0.00145702
0.00147471
0.00149851
0.00153081
0.00156954
0.00161475
0.00167297
0.00175881
0.00189647
0.00212863
0.00254183
0.000169294
0.000207734
0.000247289
0.00029101
0.000331601
0.000366449
0.000403817
0.000441697
0.000482506
0.000528373
0.000572881
0.000622779
0.000680568
0.000732936
0.000777079
0.000815187
0.000852861
0.000890794
0.000920437
0.000948182
0.000977497
0.00100203
0.00103497
0.00108728
0.00114737
0.0012011
0.00124404
0.00127834
0.00130322
0.0013194
0.00133292
0.00135155
0.00137942
0.00141611
0.00146141
0.00152022
0.0016058
0.00174223
0.001973
0.00238548
0.000170529
0.000199564
0.00023329
0.000272573
0.000312353
0.000349782
0.000387463
0.00042476
0.000461718
0.000500043
0.000538149
0.000581742
0.000631156
0.000677529
0.000718901
0.000750927
0.000779359
0.000812415
0.000840289
0.000860046
0.000878754
0.000899389
0.000929356
0.000976221
0.00103169
0.00108221
0.001121
0.00114905
0.0011682
0.00118044
0.00119074
0.00120549
0.00122936
0.00126339
0.00130803
0.0013674
0.00145341
0.00158948
0.00181933
0.0022311
0.000168619
0.000190586
0.000218756
0.000254051
0.00029145
0.000328396
0.000366364
0.00040381
0.000438479
0.000470198
0.000500038
0.000535963
0.000578201
0.000616791
0.000653552
0.000682349
0.000702404
0.000728083
0.000754414
0.000770621
0.000780196
0.000793537
0.000819506
0.000862099
0.000913334
0.000960231
0.000995336
0.00101843
0.00103255
0.00104102
0.00104855
0.00106045
0.00108109
0.00111241
0.00115578
0.00121525
0.00130185
0.00143817
0.00166769
0.00207901
0.000163366
0.000180585
0.000203801
0.00023498
0.000269385
0.000303288
0.00033981
0.000377604
0.000411111
0.000438173
0.000459834
0.000486374
0.000521406
0.000552129
0.000581358
0.000607687
0.00062258
0.000640064
0.000662882
0.000677594
0.00068201
0.000687748
0.000707205
0.000744385
0.00079162
0.000835584
0.000867726
0.0008868
0.000896501
0.000901462
0.000906621
0.000916461
0.000934689
0.000963608
0.00100538
0.00106449
0.00115158
0.00128849
0.00151822
0.00192947
0.000154995
0.00016859
0.000187781
0.000214508
0.000245522
0.000276045
0.000309018
0.000345329
0.000377893
0.000401866
0.000417544
0.000434461
0.00046088
0.000484387
0.000504125
0.000525851
0.000538679
0.000550111
0.000567711
0.000580723
0.000583141
0.000582977
0.000594655
0.000624698
0.000667119
0.000708415
0.000738381
0.000754537
0.000760661
0.000762428
0.000765195
0.000773174
0.000789531
0.000816589
0.000856925
0.000915433
0.00100268
0.00114008
0.00137021
0.00178169
0.000143553
0.000154297
0.000170209
0.000192644
0.000219492
0.000246646
0.000275502
0.000307817
0.000337863
0.000359408
0.000371587
0.00038104
0.000397816
0.000413887
0.000424258
0.000437931
0.000448936
0.000457608
0.000470509
0.000481308
0.000483506
0.000480139
0.000484148
0.000505163
0.000541052
0.000579497
0.000608324
0.000623012
0.000626718
0.000625855
0.00062642
0.000632709
0.000647532
0.000673109
0.000712239
0.000770186
0.000857598
0.000995666
0.00122657
0.00163875
0.000128644
0.000137161
0.000150187
0.000168516
0.000191054
0.000214771
0.000239687
0.000266581
0.000291764
0.000310094
0.000320235
0.000325433
0.000333498
0.000341484
0.000342892
0.000346257
0.00035295
0.000359999
0.000369376
0.000377709
0.000379888
0.000375215
0.000372943
0.000384119
0.000411129
0.000444914
0.000472627
0.000487338
0.000490362
0.000487847
0.000486232
0.000490327
0.000503151
0.000527037
0.000564879
0.000622063
0.000709251
0.000847541
0.00107893
0.00149175
0.000111187
0.000117391
0.000127456
0.000141685
0.000159932
0.00017998
0.000200643
0.000221855
0.000241156
0.000255033
0.000262654
0.000265898
0.000268745
0.000270584
0.000266166
0.000260594
0.000260835
0.000266133
0.000274303
0.000281735
0.000283873
0.000278485
0.000271578
0.000273522
0.000289854
0.000316059
0.00034121
0.00035682
0.000361363
0.000359129
0.000356202
0.000357943
0.000368163
0.00038976
0.000425891
0.000481965
0.000568508
0.000706352
0.000937234
0.00134933
8.91155e-05
9.38683e-05
0.000101501
0.000112624
0.000127261
0.000142608
0.00015773
0.000173443
0.000187684
0.000196543
0.000199211
0.000197473
0.000194244
0.000189785
0.000178516
0.000162415
0.000151822
0.000150491
0.000156811
0.000166055
0.000171079
0.000167603
0.000159008
0.000154224
0.000160153
0.000176563
0.000196426
0.000211768
0.000218753
0.000219089
0.000217694
0.000220144
0.000230974
0.000253663
0.000291642
0.000350282
0.000439927
0.000581167
0.000815525
0.00123107
6.68423e-05
6.58953e-05
7.01046e-05
7.91789e-05
9.15816e-05
0.000102292
0.000110757
0.000120967
0.00013212
0.000139062
0.000139946
0.000137555
0.000134842
0.000131958
0.000123455
0.000107106
9.02193e-05
7.96858e-05
7.74213e-05
7.96708e-05
7.99077e-05
7.4103e-05
6.30517e-05
5.28834e-05
5.01376e-05
5.69127e-05
6.90286e-05
7.91025e-05
8.16181e-05
7.58156e-05
6.53788e-05
5.59598e-05
5.31675e-05
6.17498e-05
8.63065e-05
0.000133022
0.000212769
0.000346381
0.000575577
0.00098874
3.53717e-05
3.72521e-05
3.98218e-05
4.44344e-05
5.13394e-05
5.65081e-05
5.94405e-05
6.39806e-05
6.91735e-05
6.89468e-05
6.10014e-05
4.88952e-05
3.63633e-05
2.40502e-05
8.97041e-06
-1.27763e-05
-3.78164e-05
-5.61742e-05
-6.138e-05
-5.42979e-05
-4.21793e-05
-3.53901e-05
-3.86167e-05
-4.85116e-05
-5.78877e-05
-6.12463e-05
-5.76188e-05
-4.97214e-05
-4.12047e-05
-3.39833e-05
-2.74073e-05
-1.88501e-05
-4.73422e-06
1.89458e-05
5.69113e-05
0.000115878
0.000207166
0.000351785
0.000591244
0.00101339
-1.97052e-06
4.92858e-06
7.81115e-06
7.69104e-06
7.98855e-06
8.33034e-06
8.54594e-06
1.08739e-05
1.53154e-05
1.73773e-05
1.36742e-05
6.7168e-06
1.17047e-06
-2.21349e-06
-6.12224e-06
-1.50898e-05
-3.07275e-05
-4.71134e-05
-5.78809e-05
-6.29189e-05
-6.65533e-05
-7.47106e-05
-9.09972e-05
-0.000114227
-0.000139652
-0.000162647
-0.000182038
-0.000199671
-0.00021876
-0.00024194
-0.000270817
-0.000306094
-0.000348461
-0.000399425
-0.000462429
-0.000544118
-0.000656684
-0.00082238
-0.00108395
-0.00153015
-3.41413e-05
-3.39384e-05
-3.55056e-05
-3.89215e-05
-4.18812e-05
-4.47469e-05
-5.0595e-05
-5.88521e-05
-6.66472e-05
-7.52835e-05
-8.89297e-05
-0.000108615
-0.00013127
-0.000152871
-0.000172591
-0.000192928
-0.000213818
-0.000233065
-0.000246929
-0.000249746
-0.000242715
-0.000233943
-0.000230614
-0.000234582
-0.000242916
-0.000251325
-0.000256154
-0.000255693
-0.000250048
-0.000240434
-0.000227852
-0.000212142
-0.000191628
-0.000163179
-0.000122084
-6.11624e-05
3.14992e-05
0.0001774
0.000418285
0.000841927
-7.45102e-05
-7.4902e-05
-7.72478e-05
-8.14485e-05
-8.54844e-05
-8.92802e-05
-9.52928e-05
-0.000102735
-0.000107674
-0.000109432
-0.000112117
-0.000119153
-0.000129626
-0.000140227
-0.00014972
-0.000160772
-0.000175896
-0.000195469
-0.000217753
-0.000239158
-0.000258391
-0.000277189
-0.000298301
-0.000323638
-0.000353289
-0.000386015
-0.000420103
-0.000454514
-0.000489246
-0.000525197
-0.000563673
-0.000606097
-0.000654064
-0.000709808
-0.000777043
-0.000862318
-0.000977376
-0.00114388
-0.00140384
-0.0018453
-0.000118099
-0.000121269
-0.000127884
-0.000137481
-0.00014887
-0.000161302
-0.000175618
-0.000192188
-0.000209959
-0.000228376
-0.000248551
-0.000271515
-0.000296131
-0.000320076
-0.000341653
-0.000359884
-0.000374788
-0.000386457
-0.000394435
-0.000398708
-0.000399967
-0.000399796
-0.00039995
-0.000401402
-0.000404023
-0.000406768
-0.000408231
-0.000407144
-0.000402779
-0.000394842
-0.000383145
-0.00036713
-0.0003455
-0.000315831
-0.000274011
-0.000213129
-0.000121234
2.33675e-05
0.000262628
0.000684474
-0.000160208
-0.00016351
-0.000169803
-0.000177947
-0.000187873
-0.000198429
-0.000207985
-0.00021713
-0.00022739
-0.000238177
-0.000247472
-0.000254761
-0.000262708
-0.000274536
-0.000289933
-0.000307917
-0.000327651
-0.000347181
-0.000368241
-0.000392441
-0.000418186
-0.000444538
-0.000471529
-0.000499873
-0.000529676
-0.000560997
-0.000594034
-0.00062879
-0.000665035
-0.000702553
-0.000741707
-0.000783563
-0.000829955
-0.000883537
-0.000948386
-0.00103121
-0.00114378
-0.0013077
-0.00156493
-0.00200346
-0.000215308
-0.00022156
-0.000233139
-0.000249073
-0.000268423
-0.000289558
-0.000311766
-0.000335509
-0.000360343
-0.000384455
-0.000406681
-0.000427826
-0.000448507
-0.000467778
-0.000484596
-0.000497059
-0.000504752
-0.000510496
-0.000514831
-0.000517421
-0.00051922
-0.000520302
-0.000520425
-0.000519468
-0.000518078
-0.000516522
-0.000514231
-0.000510324
-0.000504161
-0.00049543
-0.000483674
-0.000467997
-0.000446802
-0.000417577
-0.000376254
-0.000316042
-0.000225067
-8.1656e-05
0.000156169
0.000576375
-0.000249946
-0.00025318
-0.000262446
-0.000276104
-0.000292937
-0.00031193
-0.000330458
-0.000347156
-0.000362086
-0.000375623
-0.000386589
-0.000394511
-0.000401438
-0.000410376
-0.0004224
-0.000437586
-0.000453859
-0.000469896
-0.000487446
-0.000506674
-0.000526741
-0.000547346
-0.000568274
-0.000589534
-0.000611187
-0.000633748
-0.0006578
-0.000683714
-0.000711548
-0.00074139
-0.000773744
-0.000809638
-0.000850716
-0.000899476
-0.000959942
-0.00103889
-0.0011482
-0.00130958
-0.00156505
-0.00200267
-0.000318292
-0.000325506
-0.00034158
-0.000364894
-0.000393997
-0.000426307
-0.000458374
-0.000489734
-0.000520024
-0.000546917
-0.000567381
-0.000582267
-0.000594449
-0.000605209
-0.000613989
-0.000618143
-0.000616719
-0.000612813
-0.000607456
-0.000600532
-0.000592926
-0.000584178
-0.000573856
-0.000562117
-0.000549966
-0.000537985
-0.000525938
-0.000513233
-0.000499358
-0.000483978
-0.000466573
-0.000446214
-0.000421308
-0.000389328
-0.000346195
-0.000285114
-0.000194239
-5.19692e-05
0.000183532
0.000599985
0.00533234
0.00541646
0.0057302
0.00595651
0.00601044
0.00589046
0.00564674
0.00534544
0.00503941
0.00476037
0.00452262
0.00432959
0.00417604
0.00405202
0.00394629
0.00384905
0.00375288
0.00365338
0.00354866
0.0034392
0.0033271
0.00321429
0.00310287
0.00299304
0.00288583
0.00277911
0.00267427
0.00256843
0.00246249
0.00235515
0.00224668
0.00213622
0.0020241
0.0019112
0.0017961
0.0016832
0.00156565
0.00145329
0.00134259
0.00122341
0.00110354
0.000979775
0.000851557
0.000742862
0.000632441
0.000485884
0.000288946
4.06383e-05
-0.000320622
-0.000839579
-0.00135508
-0.00182455
-0.00215834
-0.00220519
-0.00229135
-0.00283765
-0.00391983
-0.00499863
-0.00568697
-0.00632415
-0.006921
-0.00711658
-0.00699163
-0.00672588
-0.00629009
-0.00580596
-0.00539359
-0.00508939
-0.00487845
-0.00473139
-0.00467684
-0.00467081
-0.00467552
-0.00471722
-0.00474038
-0.00472571
-0.00471919
-0.00467932
-0.00460147
-0.00455963
-0.0045436
-0.00449159
-0.004414
-0.00434073
-0.0042841
-0.004238
-0.00420573
-0.00418167
-0.00416461
-0.00415559
-0.00415012
-0.00415281
-0.00415396
-0.00416022
-0.00416469
-0.00416848
-0.00417459
-0.00417142
-0.00417571
-0.00416407
0.00417928
0.00426009
0.00472438
0.00518403
0.00547292
0.0055507
0.00543963
0.00520872
0.0049323
0.00466359
0.00442987
0.00424047
0.00409301
0.00397757
0.00388151
0.00379375
0.00370602
0.00361338
0.00351368
0.00340716
0.00329624
0.00318365
0.00307258
0.00296378
0.0028582
0.00275294
0.00264942
0.00254423
0.00243897
0.00233228
0.00222481
0.00211528
0.00200384
0.00189143
0.00177691
0.00166496
0.00154726
0.00143478
0.00132382
0.00120413
0.00108439
0.000960832
0.000832425
0.000722356
0.000608913
0.00046065
0.000260548
1.46261e-05
-0.000340097
-0.000853749
-0.00135761
-0.00182021
-0.00215837
-0.00221109
-0.00229242
-0.0028409
-0.00391818
-0.00498728
-0.00565903
-0.00629232
-0.00689422
-0.00708426
-0.00695569
-0.00669793
-0.00627188
-0.00579459
-0.00538497
-0.00508187
-0.00487225
-0.00472571
-0.0046721
-0.00466685
-0.00467153
-0.00471396
-0.00473789
-0.00472341
-0.00471754
-0.00467838
-0.00460083
-0.00455924
-0.00454352
-0.00449167
-0.00441421
-0.00434111
-0.00428455
-0.00423831
-0.00420585
-0.00418169
-0.00416458
-0.00415556
-0.00415006
-0.00415274
-0.00415389
-0.00416017
-0.00416467
-0.00416848
-0.00417459
-0.00417142
-0.0041757
-0.00416403
0.00398996
0.00410078
0.0046052
0.00510735
0.00543448
0.00554242
0.00544991
0.00522524
0.00494573
0.00466898
0.00442596
0.00422818
0.00407447
0.0039554
0.00385772
0.00376967
0.00368226
0.00359018
0.00349086
0.00338416
0.00327194
0.00315723
0.00304373
0.00293351
0.0028271
0.00272228
0.00261898
0.00251435
0.00240951
0.00230327
0.00219663
0.00208808
0.00197747
0.00186585
0.00175271
0.00164057
0.00152447
0.00141016
0.00129677
0.00117672
0.00105663
0.000932423
0.000801522
0.000683619
0.000556767
0.000402052
0.000197111
-5.38439e-05
-0.000393773
-0.000876479
-0.00135089
-0.00178212
-0.00212844
-0.00223824
-0.00236445
-0.00288926
-0.00390229
-0.00491789
-0.00556712
-0.00617732
-0.00675681
-0.00696332
-0.00687159
-0.00664293
-0.00623716
-0.00577637
-0.00538086
-0.00508533
-0.00487793
-0.00473151
-0.00467594
-0.00466865
-0.00467194
-0.00471277
-0.0047358
-0.00472119
-0.00471512
-0.00467612
-0.00459904
-0.00455765
-0.00454199
-0.00449042
-0.00441338
-0.00434054
-0.00428412
-0.00423816
-0.00420594
-0.00418185
-0.00416473
-0.00415568
-0.00415018
-0.00415289
-0.00415401
-0.00416026
-0.00416471
-0.00416849
-0.0041746
-0.00417146
-0.00417576
-0.00416403
0.00349596
0.00358658
0.00408454
0.00460289
0.00496604
0.00512541
0.00509136
0.00492226
0.00468926
0.00444854
0.00423259
0.00405498
0.00391692
0.00381114
0.00372578
0.00364953
0.00357338
0.00349199
0.00340259
0.00330471
0.00319962
0.00309018
0.00298023
0.00287248
0.00276856
0.00266652
0.00256664
0.00246542
0.00236356
0.0022598
0.00215506
0.0020483
0.00193931
0.0018295
0.00171762
0.00160673
0.00149109
0.00137543
0.001262
0.00114181
0.00102106
0.000896584
0.000763352
0.000638972
0.000502858
0.00034597
0.000138985
-0.000113913
-0.000434245
-0.000890964
-0.00133954
-0.00174852
-0.00211074
-0.00227387
-0.00242337
-0.00291773
-0.00387205
-0.0048437
-0.00546862
-0.00605533
-0.00662955
-0.00684379
-0.00676772
-0.00656007
-0.0061823
-0.00574772
-0.00536611
-0.00507563
-0.00487113
-0.00472581
-0.00466977
-0.00466204
-0.00466386
-0.00470355
-0.00472699
-0.00471267
-0.00470673
-0.00466918
-0.00459415
-0.00455377
-0.00453826
-0.00448723
-0.00441147
-0.00433986
-0.00428427
-0.00423845
-0.00420615
-0.00418202
-0.00416487
-0.00415576
-0.00415016
-0.00415277
-0.00415388
-0.00416017
-0.00416468
-0.0041685
-0.00417461
-0.00417152
-0.00417586
-0.00416403
0.00323796
0.00334402
0.00386406
0.00440811
0.00479837
0.00498483
0.00497579
0.00482754
0.00461013
0.00438007
0.00417092
0.00399748
0.00386202
0.00375847
0.00367548
0.00360207
0.00352904
0.0034508
0.00336437
0.00326892
0.00316562
0.00305746
0.002948
0.00284018
0.00273568
0.00263359
0.00253437
0.0024345
0.00233447
0.00223196
0.00212817
0.00202162
0.00191294
0.00180336
0.00169294
0.001582
0.00146641
0.00134977
0.00123422
0.00111327
0.000991072
0.000865799
0.000729328
0.000599709
0.000455405
0.000291525
8.30403e-05
-0.000171524
-0.000478015
-0.000909416
-0.0013373
-0.00172745
-0.00209407
-0.00229859
-0.00247678
-0.00294906
-0.00384567
-0.0047655
-0.00536242
-0.00592342
-0.00647385
-0.00669386
-0.00664806
-0.00647277
-0.00612533
-0.00571457
-0.0053486
-0.00506774
-0.00486931
-0.00472662
-0.00466902
-0.00465931
-0.00465933
-0.00469671
-0.00471952
-0.00470519
-0.00469859
-0.00466184
-0.00458874
-0.00454906
-0.00453346
-0.00448304
-0.00440856
-0.00433818
-0.00428336
-0.00423809
-0.00420614
-0.00418219
-0.00416512
-0.00415607
-0.0041505
-0.00415312
-0.00415416
-0.00416034
-0.00416475
-0.00416854
-0.00417463
-0.00417159
-0.00417599
-0.00416405
0.00297739
0.00307665
0.00359303
0.00413713
0.00453084
0.00472395
0.00472426
0.00458745
0.00438295
0.00416683
0.00397202
0.00381303
0.00369171
0.00360147
0.00353062
0.00346791
0.00340424
0.00333394
0.00325434
0.00316492
0.00306755
0.00296538
0.00286191
0.00275936
0.00265942
0.00256076
0.00246482
0.00236835
0.0022719
0.0021729
0.00207186
0.00196761
0.00186033
0.00175224
0.00164378
0.00153498
0.00142097
0.00130382
0.00118776
0.00106801
0.000944859
0.000819542
0.000681293
0.000547248
0.000396166
0.000227843
2.18443e-05
-0.000234592
-0.000528123
-0.000931083
-0.00134163
-0.00171178
-0.00207501
-0.002319
-0.00252793
-0.00297871
-0.00381407
-0.00468169
-0.00525337
-0.00578712
-0.00632106
-0.00655327
-0.0065273
-0.00637927
-0.00606187
-0.00567842
-0.00533152
-0.00505856
-0.00486373
-0.00472194
-0.004663
-0.00465224
-0.00465037
-0.00468556
-0.00470832
-0.00469426
-0.00468729
-0.0046519
-0.00458139
-0.00454298
-0.00452746
-0.00447775
-0.00440495
-0.00433638
-0.00428274
-0.00423792
-0.00420618
-0.00418235
-0.00416534
-0.00415623
-0.0041505
-0.00415296
-0.00415399
-0.00416022
-0.00416472
-0.00416856
-0.00417466
-0.00417167
-0.00417613
-0.00416407
0.00278546
0.00288312
0.00339631
0.00393296
0.00431686
0.00449995
0.00449282
0.00435413
0.00415468
0.00395029
0.00377281
0.00363491
0.00353625
0.00346747
0.00341486
0.00336603
0.00331208
0.0032482
0.00317292
0.00308741
0.00299463
0.00289798
0.00280027
0.00270321
0.00260838
0.0025137
0.00242089
0.0023269
0.00223285
0.00213589
0.00203673
0.00193427
0.00182861
0.00172108
0.0016132
0.00150567
0.00139262
0.00127537
0.00115724
0.00103674
0.000911861
0.000785306
0.000644424
0.000504915
0.000348482
0.000174668
-3.12904e-05
-0.000287841
-0.0005711
-0.000948605
-0.0013424
-0.00169685
-0.00205659
-0.0023362
-0.00257443
-0.00300103
-0.00377634
-0.00459522
-0.00514127
-0.005649
-0.00616504
-0.00640025
-0.00639546
-0.00627896
-0.00599456
-0.00563764
-0.00530729
-0.00504442
-0.00485589
-0.00471726
-0.00465767
-0.00464583
-0.00464264
-0.00467575
-0.00469831
-0.00468459
-0.00467701
-0.00464272
-0.00457463
-0.00453715
-0.00452153
-0.00447258
-0.00440145
-0.00433437
-0.00428171
-0.00423751
-0.00420601
-0.00418235
-0.00416554
-0.00415656
-0.00415096
-0.00415345
-0.00415437
-0.00416046
-0.00416481
-0.0041686
-0.00417469
-0.00417175
-0.00417627
-0.00416411
0.00268245
0.00280068
0.00332813
0.00385773
0.00421572
0.00435898
0.00430909
0.00413833
0.0039248
0.00372322
0.0035598
0.00344211
0.00336474
0.00331396
0.00327424
0.00323321
0.00318365
0.00312256
0.00305012
0.00296867
0.00288153
0.00279133
0.00270033
0.00260915
0.00251994
0.00243045
0.00234179
0.00225149
0.00215993
0.00206534
0.00196809
0.00186818
0.00176525
0.00165985
0.00155266
0.00144631
0.00133557
0.00122011
0.00110106
0.000980737
0.000855471
0.000728514
0.000587472
0.000444004
0.000285056
0.000106993
-9.59348e-05
-0.000348493
-0.000623806
-0.000975303
-0.00135242
-0.00169491
-0.00204585
-0.00235062
-0.0026134
-0.00301735
-0.0037366
-0.00450782
-0.00503003
-0.00551096
-0.00600643
-0.00624792
-0.00626468
-0.00617581
-0.00592243
-0.00559347
-0.00528405
-0.00503228
-0.00484872
-0.00471222
-0.00465153
-0.00463863
-0.00463381
-0.00466444
-0.00468643
-0.00467292
-0.00466479
-0.00463169
-0.00456626
-0.0045301
-0.0045146
-0.00446647
-0.00439715
-0.00433201
-0.00428065
-0.00423707
-0.00420597
-0.0041826
-0.00416577
-0.00415673
-0.0041509
-0.0041532
-0.00415412
-0.00416028
-0.00416477
-0.00416864
-0.00417472
-0.00417183
-0.00417642
-0.00416415
0.00252745
0.00258217
0.00303479
0.00349823
0.00381378
0.00394672
0.00391966
0.00379485
0.00363622
0.00348704
0.0033672
0.003281
0.00322176
0.00317741
0.00313674
0.00309245
0.00304109
0.00298172
0.00291523
0.00284318
0.00276743
0.00268879
0.00260876
0.00252668
0.00244479
0.00236131
0.00227721
0.00219069
0.00210202
0.00201043
0.00191613
0.0018196
0.00171988
0.00161767
0.00151163
0.00140613
0.00129698
0.00118343
0.00106461
0.000943004
0.000816338
0.000687904
0.000546333
0.000398477
0.000236277
5.43195e-05
-0.000147786
-0.000396395
-0.000666389
-0.000995681
-0.00135687
-0.00169099
-0.00203195
-0.00235485
-0.00264385
-0.00302986
-0.00369321
-0.00441692
-0.00491473
-0.00536813
-0.00584404
-0.00608949
-0.00612271
-0.00606135
-0.00584322
-0.00554336
-0.00525316
-0.00501293
-0.00483669
-0.00470406
-0.00464293
-0.00462917
-0.00462327
-0.0046517
-0.00467366
-0.00466078
-0.00465215
-0.0046204
-0.0045579
-0.00452301
-0.00450753
-0.00446034
-0.00439296
-0.00432961
-0.00427942
-0.00423653
-0.0042057
-0.00418239
-0.0041659
-0.00415704
-0.00415143
-0.00415381
-0.00415461
-0.00416059
-0.00416489
-0.00416868
-0.00417476
-0.00417191