/*--------------------------------*- C++ -*----------------------------------*\
| =========                 |                                                 |
| \\      /  F ield         | OpenFOAM: The Open Source CFD Toolbox           |
|  \\    /   O peration     | Version:  2312                                  |
|   \\  /    A nd           | Website:  www.openfoam.com                      |
|    \\/     M anipulation  |                                                 |
\*---------------------------------------------------------------------------*/
FoamFile
{
    version     2.0;
    format      ascii;
    arch        "LSB;label=32;scalar=64";
    class       surfaceScalarField;
    location    "0.3";
    object      phi;
}
// * * * * * * * * * * * * * * * * * * * * * * * * * * * * * * * * * * * * * //

dimensions      [0 3 -1 0 0 0 0];

oriented        oriented;

internalField   nonuniform List<scalar> 
11020
(
3.8771e-06
-6.26284e-08
3.87731e-06
4.93567e-08
3.87757e-06
-4.46998e-08
3.87731e-06
4.16303e-08
3.8784e-06
-3.54406e-08
3.87675e-06
3.40688e-08
3.87695e-06
-3.40671e-08
3.87886e-06
3.05575e-09
3.87716e-06
-8.77424e-09
3.87735e-06
1.91771e-08
3.87578e-06
3.80582e-09
3.87574e-06
1.65559e-08
3.87526e-06
1.19579e-09
3.87519e-06
9.28228e-09
3.87451e-06
-2.17384e-09
3.87458e-06
4.16797e-09
3.87417e-06
-4.35469e-09
3.87405e-06
2.19874e-10
3.87316e-06
-3.90236e-09
3.87271e-06
-1.61907e-09
3.8718e-06
-5.14546e-09
3.87132e-06
-3.36523e-09
3.8705e-06
-6.07355e-09
3.87013e-06
-4.01686e-09
3.86948e-06
-4.89533e-09
3.86909e-06
-2.27157e-09
3.86852e-06
-2.0232e-09
3.86807e-06
4.21179e-10
3.8674e-06
8.77552e-10
3.8667e-06
2.75945e-09
3.86575e-06
3.26037e-09
3.86469e-06
4.80941e-09
3.86339e-06
5.45522e-09
3.86197e-06
6.86001e-09
3.86035e-06
7.4907e-09
3.85861e-06
8.5788e-09
3.85664e-06
9.13659e-09
3.85444e-06
1.02767e-08
3.85195e-06
1.12704e-08
1.27973e-08
3.84921e-06
4.18261e-06
-5.93775e-08
4.18743e-06
4.45404e-08
4.18392e-06
-4.11905e-08
4.18763e-06
3.79189e-08
4.18536e-06
-3.31744e-08
4.18742e-06
3.20071e-08
4.18415e-06
-3.07952e-08
4.18851e-06
-1.29953e-09
4.18461e-06
-4.87833e-09
4.18702e-06
1.67641e-08
4.18372e-06
7.11248e-09
4.18542e-06
1.48512e-08
4.18376e-06
2.85219e-09
4.18493e-06
8.11874e-09
4.18266e-06
9.64829e-11
4.18377e-06
3.06022e-09
4.18263e-06
-3.22275e-09
4.18301e-06
-1.54404e-10
4.18166e-06
-2.55544e-09
4.18142e-06
-1.37488e-09
4.17993e-06
-3.65998e-09
4.17964e-06
-3.07793e-09
4.17822e-06
-4.64928e-09
4.17798e-06
-3.78004e-09
4.1769e-06
-3.8159e-09
4.17658e-06
-1.9467e-09
4.17565e-06
-1.09561e-09
4.1752e-06
8.77551e-10
4.17414e-06
1.93694e-09
4.17325e-06
3.64656e-09
4.17192e-06
4.59388e-09
4.17069e-06
6.02948e-09
4.16927e-06
6.88354e-09
4.16804e-06
8.08238e-09
4.16675e-06
8.78423e-09
4.16562e-06
9.70677e-09
4.16448e-06
1.02827e-08
4.16363e-06
1.11229e-08
4.16308e-06
1.18251e-08
1.27157e-08
4.16316e-06
4.51651e-06
-5.58283e-08
4.5206e-06
4.04518e-08
4.5169e-06
-3.74887e-08
4.52034e-06
3.44772e-08
4.51726e-06
-3.00915e-08
4.52044e-06
2.88288e-08
4.51661e-06
-2.69709e-08
4.51888e-06
-3.56229e-09
4.51641e-06
-2.41229e-09
4.51827e-06
1.49055e-08
4.51625e-06
9.13239e-09
4.51763e-06
1.34703e-08
4.51616e-06
4.32509e-09
4.51717e-06
7.10909e-09
4.51504e-06
2.22454e-09
4.51567e-06
2.43064e-09
4.5144e-06
-1.95134e-09
4.51452e-06
-2.76984e-10
4.51346e-06
-1.50097e-09
4.51315e-06
-1.05862e-09
4.51179e-06
-2.29976e-09
4.51124e-06
-2.52719e-09
4.50977e-06
-3.18682e-09
4.50907e-06
-3.08054e-09
4.50769e-06
-2.43332e-09
4.50697e-06
-1.22591e-09
4.50581e-06
6.90952e-11
4.50513e-06
1.55651e-09
4.50412e-06
2.94933e-09
4.5031e-06
4.66009e-09
4.50173e-06
5.96851e-09
4.50035e-06
7.40982e-09
4.4989e-06
8.33375e-09
4.49769e-06
9.29078e-09
4.49656e-06
9.91543e-09
4.49562e-06
1.06409e-08
4.49472e-06
1.11903e-08
4.49402e-06
1.18169e-08
4.49354e-06
1.23023e-08
1.27679e-08
4.49349e-06
4.87797e-06
-5.28507e-08
4.88109e-06
3.73287e-08
4.87769e-06
-3.40857e-08
4.88065e-06
3.15157e-08
4.87746e-06
-2.68972e-08
4.8808e-06
2.54833e-08
4.87692e-06
-2.30872e-08
4.87788e-06
-4.52286e-09
4.87592e-06
-4.50851e-10
4.87763e-06
1.31942e-08
4.87644e-06
1.03231e-08
4.87758e-06
1.23272e-08
4.8763e-06
5.61044e-09
4.8768e-06
6.60357e-09
4.87559e-06
3.43591e-09
4.87547e-06
2.55287e-09
4.8744e-06
-8.87361e-10
4.87386e-06
2.64411e-10
4.87311e-06
-7.5023e-10
4.87251e-06
-4.58683e-10
4.87149e-06
-1.27379e-09
4.87047e-06
-1.5133e-09
4.86909e-06
-1.80655e-09
4.86788e-06
-1.86468e-09
4.8664e-06
-9.58998e-10
4.86514e-06
4.09575e-11
4.86371e-06
1.49426e-09
4.86234e-06
2.92696e-09
4.86091e-06
4.37524e-09
4.85951e-06
6.06267e-09
4.85823e-06
7.2451e-09
4.85707e-06
8.57406e-09
4.856e-06
9.40924e-09
4.85501e-06
1.02804e-08
4.85409e-06
1.08266e-08
4.85336e-06
1.13736e-08
4.8528e-06
1.17481e-08
4.8525e-06
1.21222e-08
4.85246e-06
1.2342e-08
1.24881e-08
4.85274e-06
5.26774e-06
-4.99466e-08
5.27075e-06
3.43254e-08
5.26728e-06
-3.06174e-08
5.27032e-06
2.84734e-08
5.2669e-06
-2.34811e-08
5.27037e-06
2.20205e-08
5.26636e-06
-1.90822e-08
5.26706e-06
-5.22122e-09
5.26501e-06
1.59479e-09
5.2668e-06
1.14049e-08
5.26583e-06
1.12961e-08
5.26692e-06
1.12418e-08
5.26568e-06
6.84718e-09
5.26593e-06
6.35351e-09
5.26506e-06
4.30072e-09
5.26482e-06
2.80154e-09
5.2636e-06
3.29744e-10
5.26291e-06
9.52183e-10
5.26198e-06
1.83622e-10
5.26132e-06
2.01469e-10
5.26028e-06
-2.40592e-10
5.2592e-06
-4.27733e-10
5.25772e-06
-3.33159e-10
5.25635e-06
-4.8982e-10
5.25471e-06
6.80754e-10
5.25323e-06
1.51678e-09
5.25167e-06
3.054e-09
5.25014e-06
4.4583e-09
5.24859e-06
5.93278e-09
5.24709e-06
7.56208e-09
5.24569e-06
8.64087e-09
5.24452e-06
9.74517e-09
5.2435e-06
1.0432e-08
5.24262e-06
1.11608e-08
5.24186e-06
1.15855e-08
5.24129e-06
1.19458e-08
5.24089e-06
1.21473e-08
5.24071e-06
1.2295e-08
5.24076e-06
1.22995e-08
1.23026e-08
5.24094e-06
5.68842e-06
-4.69108e-08
5.69154e-06
3.12058e-08
5.68793e-06
-2.70013e-08
5.69112e-06
2.52811e-08
5.68756e-06
-1.99219e-08
5.69098e-06
1.86055e-08
5.68701e-06
-1.51193e-08
5.68757e-06
-5.78024e-09
5.68561e-06
3.5518e-09
5.68713e-06
9.89015e-09
5.68657e-06
1.18543e-08
5.68714e-06
1.0676e-08
5.68653e-06
7.45636e-09
5.6863e-06
6.58335e-09
5.68568e-06
4.91358e-09
5.6852e-06
3.28495e-09
5.68402e-06
1.5114e-09
5.68321e-06
1.76278e-09
5.68221e-06
1.1861e-09
5.68131e-06
1.10169e-09
5.68026e-06
8.10093e-10
5.67907e-06
7.53882e-10
5.67758e-06
1.15901e-09
5.67608e-06
1.01654e-09
5.67441e-06
2.34376e-09
5.67275e-06
3.17667e-09
5.67103e-06
4.77548e-09
5.66929e-06
6.20136e-09
5.66767e-06
7.55074e-09
5.66627e-06
8.96496e-09
5.66503e-06
9.88244e-09
5.66391e-06
1.08574e-08
5.66293e-06
1.14108e-08
5.66209e-06
1.2003e-08
5.66139e-06
1.22834e-08
5.66086e-06
1.24789e-08
5.66051e-06
1.24989e-08
5.66036e-06
1.24445e-08
5.66042e-06
1.22448e-08
1.19734e-08
5.66074e-06
6.14266e-06
-4.36998e-08
6.14596e-06
2.7906e-08
6.14215e-06
-2.31914e-08
6.14548e-06
2.19536e-08
6.14177e-06
-1.62123e-08
6.14519e-06
1.51872e-08
6.14123e-06
-1.11653e-08
6.14174e-06
-6.29212e-09
6.13987e-06
5.42876e-09
6.14115e-06
8.60743e-09
6.14082e-06
1.21805e-08
6.14109e-06
1.04096e-08
6.14061e-06
7.93659e-09
6.14031e-06
6.88312e-09
6.13957e-06
5.65681e-09
6.13905e-06
3.80325e-09
6.13783e-06
2.72951e-09
6.13704e-06
2.55606e-09
6.13598e-06
2.24699e-09
6.13495e-06
2.13061e-09
6.13377e-06
1.98866e-09
6.13255e-06
1.97157e-09
6.131e-06
2.70568e-09
6.12942e-06
2.59706e-09
6.1277e-06
4.0714e-09
6.1259e-06
4.97078e-09
6.12412e-06
6.55581e-09
6.12241e-06
7.91192e-09
6.12087e-06
9.09351e-09
6.11953e-06
1.02983e-08
6.11834e-06
1.1081e-08
6.11728e-06
1.19153e-08
6.11632e-06
1.23651e-08
6.11549e-06
1.28404e-08
6.11477e-06
1.2995e-08
6.11419e-06
1.3059e-08
6.11379e-06
1.29064e-08
6.11358e-06
1.26499e-08
6.11359e-06
1.22321e-08
1.16299e-08
6.11394e-06
6.63319e-06
-4.03297e-08
6.63664e-06
2.44615e-08
6.6327e-06
-1.92525e-08
6.63605e-06
1.85994e-08
6.63236e-06
-1.25188e-08
6.63557e-06
1.19769e-08
6.63183e-06
-7.42593e-09
6.6321e-06
-6.55946e-09
6.63049e-06
7.03512e-09
6.63138e-06
7.7166e-09
6.63125e-06
1.2308e-08
6.63143e-06
1.02343e-08
6.63076e-06
8.60391e-09
6.63063e-06
7.01766e-09
6.62969e-06
6.59674e-09
6.62921e-06
4.28244e-09
6.62789e-06
4.04206e-09
6.6271e-06
3.34723e-09
6.62592e-06
3.42676e-09
6.62486e-06
3.19285e-09
6.62348e-06
3.37213e-09
6.62227e-06
3.17895e-09
6.62062e-06
4.35681e-09
6.61898e-06
4.23593e-09
6.61712e-06
5.93002e-09
6.6153e-06
6.79191e-09
6.6135e-06
8.35316e-09
6.61195e-06
9.46808e-09
6.61049e-06
1.05508e-08
6.60924e-06
1.15466e-08
6.60806e-06
1.22588e-08
6.60706e-06
1.29234e-08
6.60607e-06
1.33501e-08
6.60525e-06
1.36638e-08
6.60448e-06
1.37579e-08
6.60389e-06
1.36526e-08
6.60342e-06
1.33812e-08
6.60313e-06
1.2933e-08
6.60284e-06
1.25281e-08
1.17613e-08
6.60271e-06
7.16291e-06
-3.68085e-08
7.1665e-06
2.08745e-08
7.16243e-06
-1.51911e-08
7.16577e-06
1.52604e-08
7.1621e-06
-8.84784e-09
7.16512e-06
8.95797e-09
7.16162e-06
-3.92674e-09
7.16161e-06
-6.54634e-09
7.16037e-06
8.27275e-09
7.16086e-06
7.22854e-09
7.16084e-06
1.2328e-08
7.16091e-06
1.01647e-08
7.16021e-06
9.30541e-09
7.15999e-06
7.2338e-09
7.159e-06
7.58835e-09
7.15842e-06
4.86716e-09
7.15716e-06
5.29827e-09
7.15622e-06
4.2839e-09
7.15502e-06
4.62467e-09
7.1539e-06
4.32155e-09
7.15238e-06
4.89265e-09
7.15102e-06
4.53036e-09
7.14923e-06
6.14819e-09
7.14734e-06
6.12354e-09
7.14549e-06
7.78973e-09
7.14375e-06
8.52821e-09
7.14217e-06
9.93198e-09
7.14083e-06
1.08063e-08
7.13956e-06
1.18251e-08
7.13847e-06
1.26354e-08
7.13734e-06
1.33852e-08
7.1363e-06
1.39693e-08
7.1352e-06
1.44493e-08
7.13416e-06
1.47057e-08
7.13309e-06
1.48218e-08
7.13209e-06
1.46539e-08
7.13111e-06
1.43635e-08
7.13034e-06
1.37033e-08
7.1303e-06
1.25682e-08
1.09914e-08
7.13107e-06
7.73497e-06
-3.31723e-08
7.73862e-06
1.72208e-08
7.73456e-06
-1.11297e-08
7.73771e-06
1.21074e-08
7.73433e-06
-5.46095e-09
7.73677e-06
6.51759e-09
7.73405e-06
-1.21204e-09
7.73298e-06
-5.47418e-09
7.73295e-06
8.30433e-09
7.73233e-06
7.84627e-09
7.73297e-06
1.16915e-08
7.73241e-06
1.07171e-08
7.73214e-06
9.57702e-09
7.73151e-06
7.86287e-09
7.73084e-06
8.26581e-09
7.7298e-06
5.9042e-09
7.72887e-06
6.22687e-09
7.72754e-06
5.61229e-09
7.72645e-06
5.71528e-09
7.72506e-06
5.71252e-09
7.72358e-06
6.37164e-09
7.72187e-06
6.24012e-09
7.72016e-06
7.8605e-09
7.7181e-06
8.18127e-09
7.71643e-06
9.45795e-09
7.71476e-06
1.01996e-08
7.71332e-06
1.13721e-08
7.71195e-06
1.21829e-08
7.71082e-06
1.2954e-08
7.70988e-06
1.3576e-08
7.70921e-06
1.40499e-08
7.70896e-06
1.4221e-08
7.70914e-06
1.42726e-08
7.7097e-06
1.41432e-08
7.71056e-06
1.39653e-08
7.71157e-06
1.36409e-08
7.71265e-06
1.32851e-08
7.71359e-06
1.27558e-08
7.71385e-06
1.23157e-08
1.14387e-08
7.7134e-06
8.35274e-06
-2.94534e-08
8.35642e-06
1.35433e-08
8.35242e-06
-7.13331e-09
8.35529e-06
9.24412e-09
8.35226e-06
-2.43507e-09
8.354e-06
4.77696e-09
8.35236e-06
4.24619e-10
8.35037e-06
-3.47775e-09
8.3507e-06
7.9671e-09
8.34976e-06
8.78918e-09
8.3505e-06
1.09577e-08
8.34973e-06
1.14861e-08
8.34951e-06
9.78884e-09
8.34873e-06
8.64744e-09
8.34813e-06
8.87029e-09
8.34685e-06
7.1784e-09
8.34601e-06
7.06783e-09
8.34456e-06
7.06358e-09
8.34338e-06
6.89808e-09
8.3418e-06
7.28754e-09
8.34023e-06
7.94675e-09
8.33832e-06
8.1513e-09
8.33672e-06
9.45966e-09
8.33481e-06
1.00873e-08
8.33328e-06
1.09839e-08
8.33174e-06
1.17435e-08
8.33041e-06
1.27042e-08
8.32919e-06
1.34052e-08
8.32824e-06
1.39009e-08
8.32755e-06
1.42617e-08
8.32729e-06
1.4318e-08
8.32724e-06
1.42642e-08
8.32745e-06
1.40634e-08
8.32777e-06
1.38231e-08
8.32814e-06
1.35999e-08
8.32854e-06
1.32331e-08
8.32902e-06
1.28144e-08
8.3295e-06
1.22716e-08
8.33015e-06
1.16694e-08
1.08668e-08
8.33072e-06
9.01991e-06
-2.57149e-08
9.0235e-06
9.9569e-09
9.01976e-06
-3.39998e-09
9.02205e-06
6.95119e-09
9.01977e-06
-1.4795e-10
9.02021e-06
4.33413e-09
9.0194e-06
1.23378e-09
9.01756e-06
-1.63923e-09
9.01753e-06
7.9977e-09
9.01688e-06
9.44512e-09
9.0172e-06
1.06363e-08
9.01675e-06
1.1934e-08
9.01614e-06
1.03956e-08
9.01548e-06
9.30858e-09
9.01471e-06
9.64633e-09
9.01346e-06
8.42885e-09
9.01239e-06
8.13749e-09
9.011e-06
8.44873e-09
9.00951e-06
8.38994e-09
9.00788e-06
8.91603e-09
9.00622e-06
9.60734e-09
9.00436e-06
1.00095e-08
9.0028e-06
1.10162e-08
9.00113e-06
1.1765e-08
8.99959e-06
1.25203e-08
8.99824e-06
1.30948e-08
8.99709e-06
1.38569e-08
8.99626e-06
1.42303e-08
8.99573e-06
1.44363e-08
8.99552e-06
1.44692e-08
8.99542e-06
1.44137e-08
8.9954e-06
1.42833e-08
8.99535e-06
1.41196e-08
8.99534e-06
1.38294e-08
8.99546e-06
1.3485e-08
8.99565e-06
1.30388e-08
8.99588e-06
1.25837e-08
8.99609e-06
1.20642e-08
8.99624e-06
1.15194e-08
1.09988e-08
8.99611e-06
9.7404e-06
-2.20166e-08
9.7438e-06
6.56097e-09
9.74062e-06
-2.19239e-10
9.74205e-06
5.52322e-09
9.74078e-06
1.11463e-09
9.74037e-06
4.74471e-09
9.73953e-06
2.07315e-09
9.73797e-06
-7.666e-11
9.73778e-06
8.1927e-09
9.73714e-06
1.00807e-08
9.73719e-06
1.05859e-08
9.73686e-06
1.22686e-08
9.73608e-06
1.11739e-08
9.73534e-06
1.00518e-08
9.73449e-06
1.04936e-08
9.73318e-06
9.74035e-09
9.73193e-06
9.38961e-09
9.73052e-06
9.85669e-09
9.7289e-06
1.00082e-08
9.7272e-06
1.06192e-08
9.72563e-06
1.1177e-08
9.7239e-06
1.17399e-08
9.72238e-06
1.25271e-08
9.72101e-06
1.31421e-08
9.71972e-06
1.38049e-08
9.71875e-06
1.40637e-08
9.718e-06
1.46095e-08
9.71743e-06
1.47991e-08
9.71694e-06
1.49335e-08
9.71653e-06
1.48793e-08
9.71621e-06
1.47318e-08
9.71596e-06
1.45305e-08
9.71583e-06
1.42467e-08
9.71576e-06
1.3901e-08
9.71577e-06
1.3474e-08
9.71578e-06
1.30362e-08
9.71581e-06
1.25446e-08
9.71582e-06
1.20563e-08
9.71584e-06
1.15018e-08
1.09486e-08
9.71589e-06
1.05185e-05
-1.84607e-08
1.05216e-05
3.51397e-09
1.05199e-05
1.47362e-09
1.05197e-05
5.65746e-09
1.05188e-05
2.09531e-09
1.05183e-05
5.197e-09
1.05171e-05
3.29329e-09
1.05158e-05
1.23522e-09
1.05156e-05
8.36017e-09
1.05149e-05
1.07757e-08
1.05147e-05
1.07607e-08
1.05144e-05
1.25826e-08
1.05136e-05
1.20266e-08
1.05127e-05
1.09229e-08
1.05118e-05
1.13883e-08
1.05104e-05
1.11257e-08
1.0509e-05
1.07997e-08
1.05076e-05
1.13028e-08
1.0506e-05
1.16137e-08
1.05042e-05
1.23336e-08
1.05028e-05
1.26627e-08
1.05012e-05
1.32668e-08
1.04998e-05
1.40015e-08
1.04985e-05
1.43702e-08
1.04973e-05
1.50314e-08
1.04963e-05
1.50857e-08
1.04955e-05
1.53706e-08
1.0495e-05
1.53412e-08
1.04946e-05
1.53056e-08
1.04943e-05
1.51587e-08
1.04941e-05
1.49567e-08
1.04939e-05
1.47423e-08
1.04938e-05
1.43778e-08
1.04936e-05
1.40125e-08
1.04936e-05
1.35336e-08
1.04936e-05
1.30676e-08
1.04936e-05
1.25383e-08
1.04936e-05
1.20125e-08
1.04937e-05
1.14308e-08
1.08861e-08
1.04937e-05
1.13588e-05
-1.50986e-08
1.13614e-05
8.86752e-10
1.13604e-05
2.55429e-09
1.13597e-05
6.31264e-09
1.13586e-05
3.17699e-09
1.13584e-05
5.37752e-09
1.1357e-05
4.71633e-09
1.13556e-05
2.60336e-09
1.13555e-05
8.51002e-09
1.13549e-05
1.13985e-08
1.13544e-05
1.12178e-08
1.13541e-05
1.28977e-08
1.13532e-05
1.29455e-08
1.13522e-05
1.1937e-08
1.13512e-05
1.23774e-08
1.13498e-05
1.25366e-08
1.13482e-05
1.23285e-08
1.13468e-05
1.27446e-08
1.13453e-05
1.31089e-08
1.13437e-05
1.39514e-08
1.13422e-05
1.41564e-08
1.13409e-05
1.46006e-08
1.13395e-05
1.54061e-08
1.13383e-05
1.54785e-08
1.13374e-05
1.60243e-08
1.13365e-05
1.59018e-08
1.13359e-05
1.5997e-08
1.13354e-05
1.58946e-08
1.13349e-05
1.5748e-08
1.13345e-05
1.55746e-08
1.13342e-05
1.52335e-08
1.1334e-05
1.49628e-08
1.13339e-05
1.45176e-08
1.13338e-05
1.4123e-08
1.13337e-05
1.3579e-08
1.13337e-05
1.30843e-08
1.13337e-05
1.24993e-08
1.13338e-05
1.19494e-08
1.13339e-05
1.13443e-08
1.07495e-08
1.1334e-05
1.22662e-05
-1.20084e-08
1.22684e-05
-1.24917e-09
1.22677e-05
3.26519e-09
1.2267e-05
6.97122e-09
1.22657e-05
4.51257e-09
1.22655e-05
5.5964e-09
1.22642e-05
5.94622e-09
1.22626e-05
4.23526e-09
1.22624e-05
8.72521e-09
1.22619e-05
1.18844e-08
1.22613e-05
1.18538e-08
1.22608e-05
1.33232e-08
1.22599e-05
1.38858e-08
1.22588e-05
1.30796e-08
1.22577e-05
1.34405e-08
1.22563e-05
1.39135e-08
1.22547e-05
1.38935e-08
1.22533e-05
1.42289e-08
1.22518e-05
1.45238e-08
1.22504e-05
1.54388e-08
1.22489e-05
1.56539e-08
1.22477e-05
1.57735e-08
1.22465e-05
1.65965e-08
1.22455e-05
1.64814e-08
1.22447e-05
1.68427e-08
1.22439e-05
1.66864e-08
1.22433e-05
1.66204e-08
1.22427e-05
1.64858e-08
1.22422e-05
1.61804e-08
1.22419e-05
1.59635e-08
1.22416e-05
1.5512e-08
1.22414e-05
1.51738e-08
1.22412e-05
1.46448e-08
1.22412e-05
1.42018e-08
1.22411e-05
1.3607e-08
1.22411e-05
1.30749e-08
1.22412e-05
1.24509e-08
1.22413e-05
1.18751e-08
1.22414e-05
1.12521e-08
1.07038e-08
1.22414e-05
1.32462e-05
-9.25246e-09
1.32477e-05
-2.79856e-09
1.32473e-05
3.65016e-09
1.32468e-05
7.51153e-09
1.32453e-05
5.99171e-09
1.32448e-05
6.08529e-09
1.32439e-05
6.89251e-09
1.32422e-05
5.9431e-09
1.32417e-05
9.18758e-09
1.32413e-05
1.23185e-08
1.32406e-05
1.25819e-08
1.324e-05
1.38627e-08
1.32391e-05
1.48298e-08
1.32378e-05
1.43224e-08
1.32366e-05
1.46181e-08
1.32353e-05
1.52319e-08
1.32338e-05
1.54186e-08
1.32323e-05
1.5738e-08
1.32309e-05
1.5877e-08
1.32296e-05
1.67369e-08
1.32282e-05
1.70805e-08
1.32271e-05
1.68869e-08
1.32261e-05
1.7622e-08
1.32251e-05
1.74907e-08
1.32243e-05
1.7595e-08
1.32236e-05
1.74315e-08
1.3223e-05
1.71843e-08
1.32225e-05
1.70069e-08
1.32221e-05
1.65654e-08
1.32218e-05
1.62861e-08
1.32215e-05
1.57474e-08
1.32214e-05
1.53478e-08
1.32213e-05
1.4755e-08
1.32212e-05
1.42463e-08
1.32212e-05
1.36138e-08
1.32212e-05
1.3038e-08
1.32213e-05
1.23981e-08
1.32214e-05
1.17966e-08
1.32215e-05
1.1174e-08
1.05523e-08
1.32216e-05
1.43044e-05
-6.90413e-09
1.4305e-05
-3.45353e-09
1.43051e-05
3.55931e-09
1.43048e-05
7.88919e-09
1.43034e-05
7.36274e-09
1.43025e-05
6.98685e-09
1.43016e-05
7.74938e-09
1.43001e-05
7.50181e-09
1.42993e-05
9.91113e-09
1.42989e-05
1.27987e-08
1.42981e-05
1.33546e-08
1.42974e-05
1.45042e-08
1.42965e-05
1.58021e-08
1.42952e-05
1.56064e-08
1.42939e-05
1.58818e-08
1.42926e-05
1.65349e-08
1.42912e-05
1.683e-08
1.42897e-05
1.72116e-08
1.42884e-05
1.72319e-08
1.42872e-05
1.78819e-08
1.42859e-05
1.83824e-08
1.42848e-05
1.80007e-08
1.4284e-05
1.84845e-08
1.4283e-05
1.8419e-08
1.42823e-05
1.82919e-08
1.42817e-05
1.80903e-08
1.42812e-05
1.76884e-08
1.42807e-05
1.74501e-08
1.42804e-05
1.6913e-08
1.42801e-05
1.65342e-08
1.42799e-05
1.59402e-08
1.42798e-05
1.54633e-08
1.42797e-05
1.48358e-08
1.42797e-05
1.42593e-08
1.42797e-05
1.36025e-08
1.42798e-05
1.29774e-08
1.42799e-05
1.23266e-08
1.428e-05
1.16925e-08
1.42801e-05
1.10618e-08
1.04249e-08
1.42802e-05
1.54471e-05
-4.99743e-09
1.54465e-05
-2.91205e-09
1.54472e-05
2.88028e-09
1.54471e-05
8.00336e-09
1.54459e-05
8.52978e-09
1.54448e-05
8.17648e-09
1.54438e-05
8.70711e-09
1.54424e-05
8.88545e-09
1.54415e-05
1.07811e-08
1.54409e-05
1.34002e-08
1.54401e-05
1.42332e-08
1.54394e-05
1.52162e-08
1.54384e-05
1.67399e-08
1.54371e-05
1.69208e-08
1.54358e-05
1.71869e-08
1.54345e-05
1.78384e-08
1.54332e-05
1.81491e-08
1.54318e-05
1.85938e-08
1.54305e-05
1.85723e-08
1.54294e-05
1.89251e-08
1.54283e-05
1.9496e-08
1.54272e-05
1.90988e-08
1.54264e-05
1.92603e-08
1.54256e-05
1.92135e-08
1.5425e-05
1.89189e-08
1.54244e-05
1.86485e-08
1.5424e-05
1.8131e-08
1.54236e-05
1.78004e-08
1.54234e-05
1.7209e-08
1.54232e-05
1.67257e-08
1.5423e-05
1.60883e-08
1.5423e-05
1.5523e-08
1.54229e-05
1.48731e-08
1.54229e-05
1.42357e-08
1.5423e-05
1.35632e-08
1.54231e-05
1.28926e-08
1.54232e-05
1.22313e-08
1.54233e-05
1.15708e-08
1.54234e-05
1.09376e-08
1.02875e-08
1.54235e-05
1.6681e-05
-3.49868e-09
1.66801e-05
-2.0057e-09
1.66805e-05
2.45864e-09
1.66805e-05
7.93343e-09
1.66796e-05
9.47344e-09
1.66784e-05
9.4101e-09
1.66772e-05
9.83048e-09
1.66759e-05
1.02265e-08
1.66749e-05
1.1735e-08
1.66743e-05
1.40689e-08
1.66733e-05
1.51932e-08
1.66725e-05
1.60666e-08
1.66716e-05
1.76458e-08
1.66703e-05
1.82049e-08
1.6669e-05
1.84824e-08
1.66677e-05
1.91159e-08
1.66664e-05
1.94075e-08
1.66652e-05
1.98491e-08
1.66639e-05
1.98666e-08
1.66629e-05
1.9929e-08
1.6662e-05
2.04148e-08
1.6661e-05
2.01002e-08
1.66603e-05
1.99667e-08
1.66596e-05
1.98533e-08
1.66591e-05
1.94627e-08
1.66586e-05
1.91027e-08
1.66583e-05
1.85078e-08
1.6658e-05
1.80572e-08
1.66578e-05
1.74337e-08
1.66576e-05
1.68533e-08
1.66576e-05
1.61823e-08
1.66575e-05
1.55351e-08
1.66576e-05
1.48606e-08
1.66576e-05
1.4174e-08
1.66577e-05
1.34863e-08
1.66578e-05
1.27842e-08
1.66579e-05
1.21103e-08
1.66581e-05
1.14327e-08
1.66582e-05
1.07934e-08
1.01374e-08
1.66584e-05
1.80132e-05
-2.28559e-09
1.80123e-05
-1.11815e-09
1.8012e-05
2.79018e-09
1.80122e-05
7.66361e-09
1.80116e-05
1.00686e-08
1.80105e-05
1.05433e-08
1.80093e-05
1.10574e-08
1.80079e-05
1.16047e-08
1.80068e-05
1.27968e-08
1.80061e-05
1.47942e-08
1.80051e-05
1.61832e-08
1.80041e-05
1.70704e-08
1.80032e-05
1.85237e-08
1.80021e-05
1.93838e-08
1.80008e-05
1.97646e-08
1.79996e-05
2.03206e-08
1.79984e-05
2.06057e-08
1.79972e-05
2.09896e-08
1.79961e-05
2.10355e-08
1.79951e-05
2.09008e-08
1.79943e-05
2.11763e-08
1.79935e-05
2.09416e-08
1.79929e-05
2.06128e-08
1.79923e-05
2.03696e-08
1.79919e-05
1.99058e-08
1.79915e-05
1.94513e-08
1.79912e-05
1.88075e-08
1.79911e-05
1.82381e-08
1.79909e-05
1.75797e-08
1.79909e-05
1.69182e-08
1.79908e-05
1.62146e-08
1.79909e-05
1.5502e-08
1.79909e-05
1.47975e-08
1.7991e-05
1.4075e-08
1.79911e-05
1.33706e-08
1.79913e-05
1.26508e-08
1.79914e-05
1.19638e-08
1.79916e-05
1.12771e-08
1.79917e-05
1.06299e-08
9.97285e-09
1.79919e-05
1.94517e-05
-1.34458e-09
1.94509e-05
-2.39189e-10
1.94502e-05
3.50111e-09
1.94502e-05
7.60741e-09
1.94499e-05
1.04e-08
1.94489e-05
1.15138e-08
1.94477e-05
1.22426e-08
1.94463e-05
1.29935e-08
1.94451e-05
1.39923e-08
1.94443e-05
1.5628e-08
1.94434e-05
1.71215e-08
1.94423e-05
1.81527e-08
1.94413e-05
1.94701e-08
1.94403e-05
2.04278e-08
1.94391e-05
2.09766e-08
1.94379e-05
2.14631e-08
1.94369e-05
2.16882e-08
1.94358e-05
2.2024e-08
1.94348e-05
2.2053e-08
1.94339e-05
2.18113e-08
1.94333e-05
2.18154e-08
1.94326e-05
2.15966e-08
1.94321e-05
2.11621e-08
1.94316e-05
2.07715e-08
1.94313e-05
2.02414e-08
1.94311e-05
1.96915e-08
1.94309e-05
1.9016e-08
1.94308e-05
1.83446e-08
1.94307e-05
1.76439e-08
1.94307e-05
1.69167e-08
1.94307e-05
1.61805e-08
1.94308e-05
1.5422e-08
1.94309e-05
1.46869e-08
1.94311e-05
1.39384e-08
1.94312e-05
1.32158e-08
1.94314e-05
1.24862e-08
1.94316e-05
1.1788e-08
1.94317e-05
1.10981e-08
1.94319e-05
1.04444e-08
9.7905e-09
1.94321e-05
2.10051e-05
-6.37278e-10
2.10042e-05
6.64417e-10
2.10035e-05
4.23366e-09
2.1003e-05
8.01945e-09
2.10028e-05
1.06867e-08
2.1002e-05
1.22264e-08
2.1001e-05
1.33073e-08
2.09997e-05
1.42884e-08
2.09984e-05
1.52822e-08
2.09974e-05
1.66222e-08
2.09965e-05
1.80618e-08
2.09954e-05
1.9204e-08
2.09944e-05
2.0463e-08
2.09935e-05
2.13679e-08
2.09924e-05
2.20437e-08
2.09913e-05
2.25478e-08
2.09904e-05
2.26448e-08
2.09895e-05
2.29259e-08
2.09886e-05
2.29027e-08
2.09878e-05
2.26077e-08
2.09873e-05
2.23745e-08
2.09868e-05
2.20678e-08
2.09864e-05
2.15817e-08
2.09861e-05
2.10638e-08
2.09858e-05
2.0475e-08
2.09857e-05
1.98289e-08
2.09856e-05
1.91231e-08
2.09856e-05
1.83722e-08
2.09856e-05
1.7629e-08
2.09857e-05
1.68497e-08
2.09858e-05
1.60826e-08
2.09859e-05
1.52911e-08
2.0986e-05
1.45283e-08
2.09862e-05
1.37609e-08
2.09864e-05
1.30231e-08
2.09866e-05
1.22888e-08
2.09868e-05
1.15841e-08
2.0987e-05
1.08949e-08
2.09872e-05
1.0239e-08
9.58943e-09
2.09874e-05
2.26824e-05
-1.22558e-10
2.26815e-05
1.54217e-09
2.26808e-05
4.99025e-09
2.26801e-05
8.67961e-09
2.26796e-05
1.11652e-08
2.26791e-05
1.28106e-08
2.26782e-05
1.41785e-08
2.2677e-05
1.54198e-08
2.26758e-05
1.65419e-08
2.26747e-05
1.77454e-08
2.26737e-05
1.90647e-08
2.26727e-05
2.01849e-08
2.26717e-05
2.1439e-08
2.26708e-05
2.22757e-08
2.26699e-05
2.29192e-08
2.2669e-05
2.35125e-08
2.26681e-05
2.35057e-08
2.26674e-05
2.36601e-08
2.26667e-05
2.35861e-08
2.2666e-05
2.32443e-08
2.26656e-05
2.2844e-08
2.26653e-05
2.23856e-08
2.2665e-05
2.18579e-08
2.26648e-05
2.12301e-08
2.26647e-05
2.05926e-08
2.26647e-05
1.98616e-08
2.26647e-05
1.91237e-08
2.26647e-05
1.8316e-08
2.26648e-05
1.75337e-08
2.26649e-05
1.67141e-08
2.26651e-05
1.59182e-08
2.26653e-05
1.51047e-08
2.26655e-05
1.43204e-08
2.26657e-05
1.35415e-08
2.2666e-05
1.2792e-08
2.26662e-05
1.20568e-08
2.26664e-05
1.13491e-08
2.26667e-05
1.06643e-08
2.26669e-05
1.00094e-08
9.36782e-09
2.26671e-05
2.44936e-05
2.67825e-10
2.44928e-05
2.30668e-09
2.4492e-05
5.82577e-09
2.44912e-05
9.39335e-09
2.44905e-05
1.18718e-08
2.44899e-05
1.34509e-08
2.44892e-05
1.48805e-08
2.44883e-05
1.63379e-08
2.44872e-05
1.76595e-08
2.4486e-05
1.88991e-08
2.44849e-05
2.01354e-08
2.4484e-05
2.11537e-08
2.44831e-05
2.23017e-08
2.44822e-05
2.3146e-08
2.44815e-05
2.36342e-08
2.44808e-05
2.42663e-08
2.448e-05
2.42642e-08
2.44794e-05
2.42323e-08
2.44789e-05
2.40872e-08
2.44785e-05
2.36895e-08
2.44781e-05
2.32017e-08
2.44779e-05
2.25779e-08
2.44778e-05
2.19775e-08
2.44778e-05
2.12639e-08
2.44778e-05
2.05808e-08
2.44779e-05
1.9795e-08
2.4478e-05
1.90185e-08
2.44781e-05
1.81747e-08
2.44783e-05
1.73544e-08
2.44785e-05
1.65107e-08
2.44787e-05
1.56886e-08
2.4479e-05
1.48644e-08
2.44792e-05
1.40634e-08
2.44795e-05
1.32803e-08
2.44797e-05
1.25228e-08
2.448e-05
1.17914e-08
2.44803e-05
1.10845e-08
2.44805e-05
1.04083e-08
2.44808e-05
9.759e-09
9.123e-09
2.4481e-05
2.64493e-05
5.68135e-10
2.64486e-05
2.9536e-09
2.64478e-05
6.67207e-09
2.6447e-05
1.01717e-08
2.64462e-05
1.26666e-08
2.64454e-05
1.42262e-08
2.64448e-05
1.5537e-08
2.64441e-05
1.70466e-08
2.64431e-05
1.85894e-08
2.64421e-05
1.99494e-08
2.6441e-05
2.1199e-08
2.64401e-05
2.21127e-08
2.64393e-05
2.30643e-08
2.64385e-05
2.3916e-08
2.64379e-05
2.42473e-08
2.64374e-05
2.47753e-08
2.64368e-05
2.48542e-08
2.64364e-05
2.46453e-08
2.64361e-05
2.44081e-08
2.64358e-05
2.39389e-08
2.64356e-05
2.33922e-08
2.64356e-05
2.26441e-08
2.64356e-05
2.19444e-08
2.64357e-05
2.11674e-08
2.64358e-05
2.04323e-08
2.6436e-05
1.96189e-08
2.64362e-05
1.88025e-08
2.64365e-05
1.79423e-08
2.64367e-05
1.70894e-08
2.6437e-05
1.62346e-08
2.64373e-05
1.53914e-08
2.64376e-05
1.45654e-08
2.64379e-05
1.37546e-08
2.64382e-05
1.29745e-08
2.64385e-05
1.22144e-08
2.64388e-05
1.149e-08
2.64391e-05
1.07872e-08
2.64394e-05
1.01215e-08
2.64397e-05
9.47958e-09
8.86234e-09
2.644e-05
2.85611e-05
7.95411e-10
2.85605e-05
3.51292e-09
2.85597e-05
7.4599e-09
2.85589e-05
1.1018e-08
2.85581e-05
1.34939e-08
2.85573e-05
1.50414e-08
2.85566e-05
1.62269e-08
2.85559e-05
1.76657e-08
2.85552e-05
1.93118e-08
2.85544e-05
2.08226e-08
2.85534e-05
2.21203e-08
2.85525e-05
2.30244e-08
2.85518e-05
2.37422e-08
2.85512e-05
2.45214e-08
2.85507e-05
2.47709e-08
2.85504e-05
2.50434e-08
2.85501e-05
2.51849e-08
2.85499e-05
2.48935e-08
2.85497e-05
2.45554e-08
2.85497e-05
2.40041e-08
2.85497e-05
2.33849e-08
2.85497e-05
2.25781e-08
2.85499e-05
2.17735e-08
2.85501e-05
2.09431e-08
2.85504e-05
2.01435e-08
2.85507e-05
1.9322e-08
2.8551e-05
1.84769e-08
2.85514e-05
1.76158e-08
2.85517e-05
1.67407e-08
2.85521e-05
1.58829e-08
2.85524e-05
1.50282e-08
2.85528e-05
1.42059e-08
2.85531e-05
1.33952e-08
2.85535e-05
1.26234e-08
2.85538e-05
1.187e-08
2.85542e-05
1.1157e-08
2.85545e-05
1.04658e-08
2.85548e-05
9.81379e-09
2.85551e-05
9.18571e-09
8.6085e-09
2.85553e-05
3.08415e-05
9.77304e-10
3.0841e-05
3.97471e-09
3.08403e-05
8.18349e-09
3.08394e-05
1.18875e-08
3.08386e-05
1.43468e-08
3.08378e-05
1.58076e-08
3.08371e-05
1.69344e-08
3.08365e-05
1.82882e-08
3.08359e-05
1.99153e-08
3.08352e-05
2.14709e-08
3.08345e-05
2.28167e-08
3.08338e-05
2.3754e-08
3.08332e-05
2.43388e-08
3.08328e-05
2.49353e-08
3.08324e-05
2.51262e-08
3.08323e-05
2.51424e-08
3.08323e-05
2.5204e-08
3.08323e-05
2.48847e-08
3.08324e-05
2.44793e-08
3.08325e-05
2.38746e-08
3.08328e-05
2.31784e-08
3.0833e-05
2.235e-08
3.08333e-05
2.14671e-08
3.08336e-05
2.05926e-08
3.08341e-05
1.97293e-08
3.08345e-05
1.88965e-08
3.08349e-05
1.80366e-08
3.08354e-05
1.71816e-08
3.08358e-05
1.63009e-08
3.08362e-05
1.54442e-08
3.08367e-05
1.4589e-08
3.08371e-05
1.37724e-08
3.08375e-05
1.29714e-08
3.08379e-05
1.2211e-08
3.08383e-05
1.14723e-08
3.08387e-05
1.07738e-08
3.08391e-05
1.01069e-08
3.08394e-05
9.4769e-09
3.08397e-05
8.86686e-09
8.30399e-09
3.084e-05
3.3304e-05
1.09096e-09
3.33036e-05
4.3741e-09
3.33029e-05
8.86632e-09
3.33021e-05
1.27346e-08
3.33013e-05
1.51262e-08
3.33006e-05
1.64878e-08
3.32999e-05
1.76031e-08
3.32993e-05
1.8919e-08
3.32988e-05
2.04547e-08
3.32983e-05
2.19459e-08
3.32979e-05
2.32346e-08
3.32974e-05
2.4238e-08
3.32969e-05
2.48085e-08
3.32966e-05
2.52355e-08
3.32964e-05
2.53342e-08
3.32964e-05
2.51461e-08
3.32966e-05
2.4994e-08
3.32969e-05
2.46143e-08
3.32972e-05
2.41414e-08
3.32976e-05
2.34998e-08
3.3298e-05
2.2741e-08
3.32985e-05
2.1903e-08
3.3299e-05
2.09829e-08
3.32995e-05
2.00844e-08
3.33e-05
1.91818e-08
3.33006e-05
1.83372e-08
3.33011e-05
1.74777e-08
3.33017e-05
1.66362e-08
3.33022e-05
1.57705e-08
3.33027e-05
1.49236e-08
3.33033e-05
1.40576e-08
3.33038e-05
1.32501e-08
3.33043e-05
1.24696e-08
3.33048e-05
1.17287e-08
3.33052e-05
1.10159e-08
3.33057e-05
1.03392e-08
3.33061e-05
9.69172e-09
3.33065e-05
9.07779e-09
3.33069e-05
8.49351e-09
7.93161e-09
3.33072e-05
3.5963e-05
1.18479e-09
3.59627e-05
4.754e-09
3.5962e-05
9.48625e-09
3.59613e-05
1.34827e-08
3.59606e-05
1.58106e-08
3.596e-05
1.70971e-08
3.59594e-05
1.82078e-08
3.59588e-05
1.95148e-08
3.59583e-05
2.0919e-08
3.5958e-05
2.22747e-08
3.59578e-05
2.3439e-08
3.59577e-05
2.43749e-08
3.59575e-05
2.49261e-08
3.59576e-05
2.52168e-08
3.59577e-05
2.52305e-08
3.59579e-05
2.49059e-08
3.59584e-05
2.45205e-08
3.59589e-05
2.40554e-08
3.59596e-05
2.3517e-08
3.59602e-05
2.28864e-08
3.59608e-05
2.21292e-08
3.59614e-05
2.12977e-08
3.5962e-05
2.03676e-08
3.59627e-05
1.94392e-08
3.59633e-05
1.85045e-08
3.5964e-05
1.7625e-08
3.59648e-05
1.67609e-08
3.59655e-05
1.59305e-08
3.59661e-05
1.51324e-08
3.59667e-05
1.43314e-08
3.59672e-05
1.35348e-08
3.59677e-05
1.27636e-08
3.59682e-05
1.20171e-08
3.59686e-05
1.13021e-08
3.5969e-05
1.06174e-08
3.59694e-05
9.96397e-09
3.59697e-05
9.34134e-09
3.597e-05
8.74842e-09
3.59703e-05
8.18547e-09
7.65929e-09
3.59706e-05
3.88349e-05
7.85769e-10
3.88335e-05
6.11789e-09
3.88337e-05
9.31441e-09
3.88327e-05
1.44162e-08
3.88327e-05
1.57979e-08
3.88318e-05
1.80777e-08
3.88316e-05
1.83559e-08
3.88309e-05
2.02169e-08
3.88308e-05
2.09912e-08
3.88303e-05
2.27767e-08
3.88303e-05
2.3447e-08
3.883e-05
2.46679e-08
3.88301e-05
2.48834e-08
3.88299e-05
2.53503e-08
3.88301e-05
2.5074e-08
3.88301e-05
2.48615e-08
3.88306e-05
2.41036e-08
3.8831e-05
2.35999e-08