/*--------------------------------*- C++ -*----------------------------------*\
| =========                 |                                                 |
| \\      /  F ield         | OpenFOAM: The Open Source CFD Toolbox           |
|  \\    /   O peration     | Version:  2312                                  |
|   \\  /    A nd           | Website:  www.openfoam.com                      |
|    \\/     M anipulation  |                                                 |
\*---------------------------------------------------------------------------*/
FoamFile
{
    version     2.0;
    format      ascii;
    arch        "LSB;label=32;scalar=64";
    class       volVectorField;
    location    "0.3";
    object      U;
}
// * * * * * * * * * * * * * * * * * * * * * * * * * * * * * * * * * * * * * //

dimensions      [0 1 -1 0 0 0 0];

internalField   nonuniform List<vector> 
5600
(
(0.972364 -0.000801713 0)
(1.02662 0.000693836 0)
(0.975051 -0.000671364 0)
(1.02431 0.000675402 0)
(0.977313 -0.000606001 0)
(1.02269 0.000618571 0)
(0.978515 -0.000696238 0)
(1.0208 0.000111383 0)
(0.981453 -0.000251198 0)
(1.01799 0.000502274 0)
(0.983468 6.1976e-05 0)
(1.01537 0.000499619 0)
(0.985073 2.2972e-05 0)
(1.01365 0.000325254 0)
(0.986424 -0.000108225 0)
(1.01193 0.000174791 0)
(0.987755 -0.000208434 0)
(1.01053 5.11365e-06 0)
(0.988862 -0.000244381 0)
(1.0088 -0.000113221 0)
(0.989809 -0.000359254 0)
(1.00726 -0.000246262 0)
(0.990466 -0.000478114 0)
(1.00582 -0.000326646 0)
(0.991189 -0.000446247 0)
(1.00459 -0.000230071 0)
(0.991721 -0.000242304 0)
(1.00346 -1.94032e-06 0)
(0.992215 2.45303e-05 0)
(1.00239 0.000251816 0)
(0.992479 0.000306782 0)
(1.0013 0.000539333 0)
(0.99258 0.000647299 0)
(1.00026 0.000913781 0)
(0.992607 0.00106672 0)
(0.99929 0.00134093 0)
(0.992543 0.00152368 0)
(0.998347 0.00186272 0)
(0.992476 0.00219654 0)
(0.997856 0.00272595 0)
(0.987873 -0.000809227 0)
(1.01038 0.000674627 0)
(0.990378 -0.000668163 0)
(1.00859 0.000670393 0)
(0.992256 -0.00063163 0)
(1.00757 0.000665291 0)
(0.99309 -0.00069018 0)
(1.00617 1.73529e-05 0)
(0.995031 -0.00016124 0)
(1.00439 0.000478123 0)
(0.99617 0.000153819 0)
(1.00284 0.000487793 0)
(0.996857 5.64768e-05 0)
(1.00224 0.000319164 0)
(0.99723 -5.29044e-05 0)
(1.00128 0.000161851 0)
(0.99763 -0.000175601 0)
(1.00087 1.53572e-05 0)
(0.997722 -0.000156952 0)
(1.00012 -6.70064e-05 0)
(0.997668 -0.000259001 0)
(0.999402 -0.000190931 0)
(0.997424 -0.000372513 0)
(0.998719 -0.000284664 0)
(0.99731 -0.000356285 0)
(0.998182 -0.000174389 0)
(0.99709 -0.00014367 0)
(0.997684 8.78641e-05 0)
(0.996911 0.000172404 0)
(0.997211 0.000407614 0)
(0.996601 0.000531332 0)
(0.996719 0.0007855 0)
(0.996244 0.000968973 0)
(0.996257 0.00127681 0)
(0.995886 0.00151529 0)
(0.995826 0.00184982 0)
(0.995564 0.00213443 0)
(0.995552 0.00255781 0)
(0.995569 0.00301001 0)
(0.99593 0.003627 0)
(0.99712 -0.000722581 0)
(1.0018 0.000566773 0)
(0.997828 -0.00057117 0)
(1.00124 0.000562592 0)
(0.998368 -0.00053364 0)
(1.00094 0.000549741 0)
(0.99867 -0.000570311 0)
(1.00032 -7.72945e-05 0)
(0.998731 -7.00684e-05 0)
(0.999976 0.000386968 0)
(0.998963 0.000244081 0)
(0.99961 0.000406121 0)
(0.99902 0.000130171 0)
(0.999531 0.000251084 0)
(0.998933 6.46052e-05 0)
(0.999035 8.75256e-05 0)
(0.998797 -0.000106733 0)
(0.99887 -3.11992e-05 0)
(0.998514 -0.000101377 0)
(0.998532 -8.47158e-05 0)
(0.998226 -0.000173376 0)
(0.998108 -0.000204786 0)
(0.997705 -0.000270605 0)
(0.9976 -0.000280998 0)
(0.997267 -0.000256586 0)
(0.997093 -0.000163321 0)
(0.996785 -5.97903e-05 0)
(0.996611 9.54354e-05 0)
(0.996433 0.0002569 0)
(0.996223 0.000471165 0)
(0.996034 0.000672985 0)
(0.995832 0.000923738 0)
(0.995651 0.00114125 0)
(0.995477 0.00139566 0)
(0.995312 0.00162115 0)
(0.99516 0.00189246 0)
(0.995051 0.00215707 0)
(0.995017 0.00247176 0)
(0.995124 0.00278681 0)
(0.995473 0.00312792 0)
(0.999571 -0.000713808 0)
(0.999866 0.000555642 0)
(0.999454 -0.000552382 0)
(0.999791 0.000552196 0)
(0.999492 -0.000516665 0)
(0.999701 0.000535698 0)
(0.999627 -0.000526683 0)
(0.999285 -8.1777e-05 0)
(0.999019 -4.21133e-05 0)
(0.999242 0.00037553 0)
(0.999146 0.000266401 0)
(0.999222 0.000397921 0)
(0.999163 0.00015273 0)
(0.999133 0.000242679 0)
(0.99899 0.000106427 0)
(0.998866 0.000109698 0)
(0.998744 -6.25517e-05 0)
(0.998566 5.57766e-06 0)
(0.998384 -5.27225e-05 0)
(0.998228 -3.18268e-05 0)
(0.998127 -0.000101181 0)
(0.997894 -0.00012235 0)
(0.997556 -0.000171348 0)
(0.997366 -0.000183232 0)
(0.997037 -0.000138201 0)
(0.996783 -4.99885e-05 0)
(0.996455 7.89834e-05 0)
(0.996215 0.000233191 0)
(0.996012 0.000407395 0)
(0.995813 0.000642342 0)
(0.99562 0.000859328 0)
(0.995448 0.00112907 0)
(0.995271 0.00135605 0)
(0.995122 0.00161479 0)
(0.994993 0.00184543 0)
(0.99489 0.00211618 0)
(0.994853 0.00238486 0)
(0.994886 0.00269387 0)
(0.995085 0.00300436 0)
(0.995496 0.00333769 0)
(0.999948 -0.000650096 0)
(0.999628 0.000484867 0)
(0.999659 -0.000472975 0)
(0.999648 0.000472557 0)
(0.99963 -0.000427164 0)
(0.999569 0.000430423 0)
(0.999719 -0.000417203 0)
(0.999207 -0.000117874 0)
(0.999008 2.24229e-05 0)
(0.999156 0.000305056 0)
(0.999158 0.000307851 0)
(0.999196 0.000343735 0)
(0.999186 0.000212801 0)
(0.999083 0.000220965 0)
(0.998968 0.000154543 0)
(0.998897 0.000100044 0)
(0.998743 -1.44181e-05 0)
(0.998546 2.07225e-05 0)
(0.998361 -2.21828e-05 0)
(0.998164 -1.79381e-05 0)
(0.998098 -4.83583e-05 0)
(0.997856 -6.96381e-05 0)
(0.997541 -7.78268e-05 0)
(0.997327 -9.31746e-05 0)
(0.99701 -1.22518e-05 0)
(0.996742 6.1888e-05 0)
(0.996406 0.000210673 0)
(0.996176 0.000369239 0)
(0.995949 0.000563428 0)
(0.995765 0.000811637 0)
(0.995567 0.00102766 0)
(0.995405 0.00128186 0)
(0.995244 0.00149592 0)
(0.995109 0.0017426 0)
(0.995012 0.0019667 0)
(0.994936 0.00221526 0)
(0.99494 0.00245374 0)
(0.995003 0.00270775 0)
(0.995229 0.00294659 0)
(0.995641 0.00318492 0)
(0.999988 -0.000635184 0)
(0.999616 0.000467708 0)
(0.999674 -0.000444069 0)
(0.999651 0.000447698 0)
(0.999657 -0.000391762 0)
(0.999562 0.000398204 0)
(0.999703 -0.000357528 0)
(0.999238 -0.000114127 0)
(0.999025 5.69244e-05 0)
(0.999161 0.000278081 0)
(0.999168 0.000323078 0)
(0.999187 0.00032728 0)
(0.999189 0.000232373 0)
(0.999087 0.000225115 0)
(0.998973 0.000170578 0)
(0.998912 0.00012911 0)
(0.998747 4.56301e-05 0)
(0.99857 7.09468e-05 0)
(0.998383 4.32299e-05 0)
(0.998155 4.22868e-05 0)
(0.998091 2.17655e-05 0)
(0.99784 1.6835e-05 0)
(0.997555 3.53461e-05 0)
(0.997336 2.38897e-05 0)
(0.997041 0.000129013 0)
(0.996793 0.000210166 0)
(0.996462 0.000376054 0)
(0.996267 0.000549055 0)
(0.99604 0.000750332 0)
(0.995873 0.000995494 0)
(0.995679 0.00120587 0)
(0.995521 0.00144706 0)
(0.995379 0.00165538 0)
(0.995253 0.00188819 0)
(0.995181 0.00210287 0)
(0.995119 0.00232789 0)
(0.995144 0.00253879 0)
(0.995219 0.00274876 0)
(0.995458 0.00294128 0)
(0.995881 0.00312746 0)
(0.99999 -0.000575028 0)
(0.999626 0.000401631 0)
(0.999678 -0.000367749 0)
(0.999658 0.000373858 0)
(0.999663 -0.000306575 0)
(0.999563 0.00030637 0)
(0.999684 -0.000260051 0)
(0.999271 -0.000140788 0)
(0.999055 0.00011238 0)
(0.999183 0.000231021 0)
(0.999183 0.000337269 0)
(0.999182 0.000315964 0)
(0.999184 0.000250864 0)
(0.999089 0.000237545 0)
(0.998968 0.000201221 0)
(0.998897 0.000140418 0)
(0.998733 8.98438e-05 0)
(0.99858 9.87898e-05 0)
(0.998398 8.13298e-05 0)
(0.998162 8.22497e-05 0)
(0.998098 7.76232e-05 0)
(0.997838 8.41821e-05 0)
(0.997575 0.00013085 0)
(0.997371 0.000134259 0)
(0.997094 0.000259688 0)
(0.996875 0.000356464 0)
(0.996562 0.000534467 0)
(0.9964 0.000723916 0)
(0.996189 0.000924429 0)
(0.996031 0.00115988 0)
(0.99585 0.00135961 0)
(0.995697 0.00159478 0)
(0.995572 0.00179311 0)
(0.995454 0.00201852 0)
(0.995395 0.00221549 0)
(0.99534 0.00242298 0)
(0.995369 0.00260498 0)
(0.995443 0.00278427 0)
(0.995678 0.00293637 0)
(0.9961 0.00307755 0)
(0.999991 -0.000549191 0)
(0.999639 0.0003723 0)
(0.999683 -0.000325936 0)
(0.999666 0.000334845 0)
(0.999671 -0.000257604 0)
(0.999572 0.000264364 0)
(0.999661 -0.000191238 0)
(0.999305 -0.000138541 0)
(0.999087 0.000149306 0)
(0.999203 0.000210714 0)
(0.999194 0.000338018 0)
(0.999177 0.000310272 0)
(0.99918 0.000263114 0)
(0.999093 0.00024395 0)
(0.998973 0.000227311 0)
(0.998898 0.000170258 0)
(0.998731 0.00015286 0)
(0.998591 0.000145451 0)
(0.998414 0.000151038 0)
(0.998171 0.000157243 0)
(0.998107 0.000163144 0)
(0.997851 0.000173783 0)
(0.997597 0.000251032 0)
(0.997413 0.000262006 0)
(0.997157 0.000408984 0)
(0.996966 0.00052147 0)
(0.996678 0.000712029 0)
(0.996537 0.000900628 0)
(0.996343 0.0010966 0)
(0.996197 0.00131785 0)
(0.996031 0.00151892 0)
(0.995888 0.00174494 0)
(0.995779 0.0019447 0)
(0.995668 0.00215462 0)
(0.995617 0.00233513 0)
(0.995564 0.00250614 0)
(0.995592 0.00264747 0)
(0.995658 0.00276975 0)
(0.995876 0.00286638 0)
(0.99627 0.00295085 0)
(0.999991 -0.000490808 0)
(0.999653 0.000308581 0)
(0.99969 -0.000252203 0)
(0.999673 0.000269144 0)
(0.999673 -0.00018069 0)
(0.99958 0.000188447 0)
(0.999646 -0.000111534 0)
(0.999338 -0.00015019 0)
(0.999122 0.000188624 0)
(0.999227 0.000186534 0)
(0.999212 0.000346922 0)
(0.999177 0.000304071 0)
(0.999179 0.000295669 0)
(0.999094 0.000248124 0)
(0.998966 0.000272932 0)
(0.998889 0.000180645 0)
(0.998728 0.000206756 0)
(0.998595 0.000174928 0)
(0.998424 0.00020387 0)
(0.998185 0.000200456 0)
(0.998123 0.000245525 0)
(0.997883 0.000241701 0)
(0.997633 0.000365779 0)
(0.997472 0.000382869 0)
(0.997246 0.000558523 0)
(0.997075 0.000673263 0)
(0.996812 0.000875165 0)
(0.996683 0.00104356 0)
(0.996511 0.00124482 0)
(0.99638 0.00144766 0)
(0.996233 0.00166279 0)
(0.996102 0.00188545 0)
(0.995997 0.00211512 0)
(0.995884 0.00234096 0)
(0.995815 0.00256115 0)
(0.995737 0.00274666 0)
(0.99573 0.00291503 0)
(0.995765 0.00302383 0)
(0.995966 0.00307344 0)
(0.996399 0.00296285 0)
(0.999998 -0.000455715 0)
(0.999664 0.000269692 0)
(0.999702 -0.000201218 0)
(0.999678 0.000222684 0)
(0.999685 -0.000125562 0)
(0.999589 0.000147496 0)
(0.999633 -4.49087e-05 0)
(0.999367 -0.000140757 0)
(0.999162 0.000206275 0)
(0.999243 0.000187177 0)
(0.999233 0.000337187 0)
(0.999175 0.000306731 0)
(0.999182 0.000308139 0)
(0.999098 0.000258685 0)
(0.998972 0.000303386 0)
(0.998892 0.000216735 0)
(0.998743 0.000262508 0)
(0.998604 0.00023595 0)
(0.998444 0.000273356 0)
(0.998203 0.000281245 0)
(0.998144 0.000346233 0)
(0.997921 0.000347657 0)
(0.997685 0.000495971 0)
(0.997538 0.000543142 0)
(0.997343 0.000711385 0)
(0.997186 0.000831686 0)
(0.996947 0.00102369 0)
(0.996827 0.00118489 0)
(0.996681 0.00137789 0)
(0.996571 0.00156911 0)
(0.996455 0.00177834 0)
(0.996356 0.00198014 0)
(0.99629 0.0021902 0)
(0.996205 0.00238052 0)
(0.996147 0.00257291 0)
(0.996062 0.00273325 0)
(0.996015 0.00289071 0)
(0.995919 0.00299122 0)
(0.995763 0.00303962 0)
(0.995352 0.0029248 0)
(0.999999 -0.00039924 0)
(0.999684 0.000208949 0)
(0.999711 -0.000131647 0)
(0.999688 0.000169686 0)
(0.999689 -6.50224e-05 0)
(0.999601 9.69561e-05 0)
(0.999625 -2.49677e-06 0)
(0.999396 -9.76098e-05 0)
(0.999202 0.000188304 0)
(0.999266 0.000216966 0)
(0.999255 0.000312627 0)
(0.99918 0.000338555 0)
(0.999184 0.000311676 0)
(0.999105 0.000292473 0)
(0.99897 0.000323113 0)
(0.99889 0.000268191 0)
(0.998753 0.000287524 0)
(0.998614 0.000302241 0)
(0.998462 0.000316789 0)
(0.998234 0.000357662 0)
(0.998174 0.000422995 0)
(0.997978 0.000462061 0)
(0.997759 0.000602253 0)
(0.99762 0.000694549 0)
(0.997447 0.000833885 0)
(0.997308 0.000971912 0)
(0.997092 0.00114554 0)
(0.996983 0.00131587 0)
(0.99686 0.00148829 0)
(0.996768 0.00167274 0)
(0.996661 0.00184665 0)
(0.996561 0.00200855 0)
(0.996477 0.00214648 0)
(0.996375 0.00227051 0)
(0.996302 0.00238988 0)
(0.996212 0.00250102 0)
(0.996146 0.00260898 0)
(0.996029 0.00269168 0)
(0.995858 0.00276315 0)
(0.995484 0.00280909 0)
(1 -0.000357632 0)
(0.999708 0.000165299 0)
(0.999718 -8.03282e-05 0)
(0.999701 0.000128303 0)
(0.999696 -1.74062e-05 0)
(0.999617 8.24533e-05 0)
(0.999621 2.02918e-05 0)
(0.999424 -5.35063e-05 0)
(0.999242 0.00018981 0)
(0.999287 0.000237284 0)
(0.999277 0.00029557 0)
(0.999191 0.000352508 0)
(0.999186 0.000325174 0)
(0.999118 0.000313128 0)
(0.99898 0.000349308 0)
(0.998899 0.000320381 0)
(0.998776 0.000335882 0)
(0.998636 0.000374346 0)
(0.998489 0.000395585 0)
(0.998274 0.000452679 0)
(0.998216 0.000530591 0)
(0.998041 0.000594061 0)
(0.997841 0.000720329 0)
(0.997707 0.000835145 0)
(0.997553 0.000963226 0)
(0.997437 0.00110087 0)
(0.99724 0.00126875 0)
(0.997142 0.00143073 0)
(0.997032 0.00158324 0)
(0.996948 0.00173067 0)
(0.996835 0.0018685 0)
(0.996722 0.00199682 0)
(0.996637 0.00211604 0)
(0.996555 0.00223614 0)
(0.996505 0.00236113 0)
(0.99643 0.0024826 0)
(0.99636 0.00259919 0)
(0.996223 0.00269563 0)
(0.996015 0.00277924 0)
(0.995598 0.00283803 0)
(1 -0.000304698 0)
(0.999735 0.000110984 0)
(0.999726 -1.90444e-05 0)
(0.999715 9.47622e-05 0)
(0.999704 1.31824e-05 0)
(0.999629 8.31122e-05 0)
(0.999622 3.08072e-05 0)
(0.999455 -1.71305e-05 0)
(0.999283 0.000193518 0)
(0.99931 0.000250018 0)
(0.999302 0.000294803 0)
(0.999205 0.000364863 0)
(0.999191 0.000350369 0)
(0.999132 0.00033885 0)
(0.99899 0.000381372 0)
(0.998906 0.000370717 0)
(0.998796 0.000384129 0)
(0.998661 0.000432992 0)
(0.998521 0.000470931 0)
(0.998325 0.000537804 0)
(0.998274 0.000621993 0)
(0.998114 0.000706226 0)
(0.997934 0.000821663 0)
(0.99781 0.000943218 0)
(0.997667 0.00107662 0)
(0.997575 0.00119818 0)
(0.997397 0.00135843 0)
(0.997295 0.00149735 0)
(0.99718 0.00163542 0)
(0.997095 0.00175579 0)
(0.996991 0.00187852 0)
(0.996892 0.0020015 0)
(0.996823 0.00212556 0)
(0.996756 0.00224806 0)
(0.996712 0.00236565 0)
(0.996638 0.00247542 0)
(0.996557 0.00257547 0)
(0.996406 0.00266315 0)
(0.996182 0.00274151 0)
(0.99576 0.00280995 0)
(1 -0.000260469 0)
(0.999766 6.87736e-05 0)
(0.999737 1.38205e-05 0)
(0.999726 8.58482e-05 0)
(0.999719 2.62362e-05 0)
(0.999645 9.71434e-05 0)
(0.999626 5.4216e-05 0)
(0.999485 1.48755e-05 0)
(0.999325 0.000197107 0)
(0.999334 0.000270235 0)
(0.999328 0.000293724 0)
(0.999226 0.00037179 0)
(0.999198 0.000375922 0)
(0.999149 0.000365945 0)
(0.999011 0.000413557 0)
(0.998922 0.000427703 0)
(0.998826 0.000444807 0)
(0.9987 0.000506028 0)
(0.998566 0.00055968 0)
(0.99838 0.000642139 0)
(0.998339 0.000718001 0)
(0.998193 0.000818109 0)
(0.998027 0.000931532 0)
(0.99792 0.00104376 0)
(0.99778 0.0011832 0)
(0.997704 0.00128898 0)
(0.997541 0.00143064 0)
(0.997443 0.00155042 0)
(0.997335 0.0016778 0)
(0.997256 0.00179537 0)
(0.997169 0.00191517 0)
(0.997082 0.00204029 0)
(0.997022 0.00215773 0)
(0.996958 0.00227638 0)
(0.996916 0.00238055 0)
(0.996839 0.00248349 0)
(0.996757 0.00257195 0)
(0.996603 0.00265923 0)
(0.996379 0.00273463 0)
(0.995959 0.0028096 0)
(1 -0.00021453 0)
(0.999796 2.81916e-05 0)
(0.999752 3.15293e-05 0)
(0.999739 9.75102e-05 0)
(0.999733 4.71711e-05 0)
(0.999661 0.000100563 0)
(0.999632 8.24627e-05 0)
(0.999516 4.09916e-05 0)
(0.999371 0.000201193 0)
(0.999359 0.000286823 0)
(0.999354 0.000305064 0)
(0.999252 0.000383094 0)
(0.99921 0.000405946 0)
(0.999169 0.000399591 0)
(0.999036 0.00044881 0)
(0.998942 0.000484015 0)
(0.998857 0.000508637 0)
(0.998743 0.000570188 0)
(0.998621 0.000635586 0)
(0.998443 0.000731606 0)
(0.998411 0.000802021 0)
(0.998287 0.000903965 0)
(0.998127 0.00103022 0)
(0.998038 0.0011267 0)
(0.997904 0.00127096 0)
(0.997833 0.00136798 0)
(0.997685 0.00149586 0)
(0.997589 0.0016063 0)
(0.997492 0.00172303 0)
(0.99742 0.00184038 0)
(0.99735 0.00194969 0)
(0.997273 0.00207076 0)
(0.997223 0.00217528 0)
(0.997161 0.00228913 0)
(0.99712 0.00238211 0)
(0.997043 0.00248153 0)
(0.99696 0.00256153 0)
(0.996808 0.0026466 0)
(0.996584 0.00271572 0)
(0.996165 0.00278877 0)
(1 -0.000172703 0)
(0.999828 -5.03787e-06 0)
(0.999773 4.51512e-05 0)
(0.999753 0.000109035 0)
(0.999747 6.58406e-05 0)
(0.999681 0.000102564 0)
(0.999641 0.000111869 0)
(0.999544 7.54062e-05 0)
(0.999417 0.000203287 0)
(0.999387 0.000299853 0)
(0.999382 0.000320493 0)
(0.999283 0.000392167 0)
(0.999226 0.000435192 0)
(0.99919 0.000437434 0)
(0.999071 0.00048687 0)
(0.998973 0.000541757 0)
(0.998895 0.000580416 0)
(0.998795 0.000643219 0)
(0.998688 0.000713307 0)
(0.998512 0.000821907 0)
(0.998485 0.000896194 0)
(0.998389 0.000985989 0)
(0.998231 0.00112535 0)
(0.998157 0.00120936 0)
(0.99803 0.00134535 0)
(0.997959 0.00144007 0)
(0.997826 0.00155455 0)
(0.997736 0.00166266 0)
(0.997658 0.00176872 0)
(0.997592 0.00188719 0)
(0.997536 0.00198775 0)
(0.997466 0.00210485 0)
(0.997424 0.00219811 0)
(0.997366 0.0023055 0)
(0.997328 0.00238908 0)
(0.997252 0.00248329 0)
(0.997168 0.00255667 0)
(0.997017 0.00263712 0)
(0.996792 0.00270059 0)
(0.996374 0.0027687 0)
(1 -0.0001355 0)
(0.999858 -3.04439e-05 0)
(0.999798 5.31467e-05 0)
(0.999768 0.000118201 0)
(0.99976 9.27832e-05 0)
(0.999701 0.00010887 0)
(0.999655 0.000132177 0)
(0.999572 0.000114009 0)
(0.999463 0.000212715 0)
(0.99942 0.000311575 0)
(0.999409 0.000339898 0)
(0.999316 0.000407975 0)
(0.99925 0.000466332 0)
(0.999215 0.000480797 0)
(0.999108 0.0005295 0)
(0.999013 0.000594784 0)
(0.998938 0.000648645 0)
(0.998846 0.000713509 0)
(0.998762 0.000780221 0)
(0.998595 0.000896328 0)
(0.998561 0.000983714 0)
(0.998499 0.00105661 0)
(0.998347 0.00120108 0)
(0.998273 0.00128604 0)
(0.998163 0.00140594 0)
(0.998089 0.00150377 0)
(0.997974 0.0016074 0)
(0.997888 0.00171945 0)
(0.997828 0.00181326 0)
(0.99777 0.00192951 0)
(0.997725 0.00202081 0)
(0.997661 0.00213329 0)
(0.997623 0.00221809 0)
(0.997569 0.00231743 0)
(0.997532 0.00239329 0)
(0.99746 0.00247941 0)
(0.997375 0.00254764 0)
(0.997225 0.00262121 0)
(0.996998 0.0026811 0)
(0.996581 0.00274272 0)
(1 -0.000101504 0)
(0.999888 -4.86023e-05 0)
(0.999826 5.62029e-05 0)
(0.999786 0.000126647 0)
(0.999774 0.000119284 0)
(0.999721 0.000122779 0)
(0.999673 0.000149503 0)
(0.999598 0.000150267 0)
(0.999506 0.00022706 0)
(0.999454 0.000322201 0)
(0.999441 0.0003595 0)
(0.999356 0.000425513 0)
(0.99928 0.00049704 0)
(0.999243 0.000524337 0)
(0.999151 0.00057659 0)
(0.999062 0.000648657 0)
(0.99899 0.000712781 0)
(0.998904 0.000787155 0)
(0.998841 0.000852021 0)
(0.998689 0.000964263 0)
(0.99864 0.00106882 0)
(0.998607 0.00113038 0)
(0.998471 0.00126539 0)
(0.998392 0.0013606 0)
(0.998294 0.00146478 0)
(0.998224 0.00156456 0)
(0.998129 0.00165825 0)
(0.998046 0.00177138 0)
(0.997998 0.00185707 0)
(0.99795 0.00196589 0)
(0.997917 0.00204987 0)
(0.997859 0.002154 0)
(0.997822 0.00223398 0)
(0.997772 0.00232382 0)
(0.997735 0.00239474 0)
(0.997667 0.00247113 0)
(0.997583 0.00253562 0)
(0.997435 0.00260119 0)
(0.997206 0.00265869 0)
(0.996791 0.00271358 0)
(1 -7.48453e-05 0)
(0.999914 -4.72586e-05 0)
(0.999857 4.97026e-05 0)
(0.999806 0.000130222 0)
(0.999787 0.000140442 0)
(0.99974 0.000143327 0)
(0.999693 0.000167591 0)
(0.999626 0.000181653 0)
(0.999548 0.000246944 0)
(0.999491 0.000337979 0)
(0.999472 0.000383365 0)
(0.999396 0.000445084 0)
(0.999316 0.000528044 0)
(0.999277 0.000570205 0)
(0.999197 0.00062624 0)
(0.999115 0.000702147 0)
(0.99905 0.00077166 0)
(0.998966 0.000854813 0)
(0.998919 0.000920855 0)
(0.998794 0.00102181 0)
(0.998729 0.00114023 0)
(0.998712 0.0012031 0)
(0.998604 0.00132029 0)
(0.998518 0.00142434 0)
(0.998429 0.00151914 0)
(0.998362 0.00161957 0)
(0.998286 0.00170358 0)
(0.998208 0.00181224 0)
(0.998167 0.00189395 0)
(0.998128 0.00199346 0)
(0.998103 0.00207228 0)
(0.998056 0.00216491 0)
(0.998019 0.00224181 0)
(0.997971 0.00232168 0)
(0.997932 0.00238992 0)
(0.99787 0.00245656 0)
(0.997785 0.00251804 0)
(0.997642 0.00257527 0)
(0.997411 0.00263036 0)
(0.996997 0.00267853 0)
(1 -5.37195e-05 0)
(0.999935 -3.32447e-05 0)
(0.999885 3.68172e-05 0)
(0.999828 0.000129576 0)
(0.999802 0.00015971 0)
(0.999756 0.000167854 0)
(0.999712 0.000189652 0)
(0.999651 0.000211246 0)
(0.999586 0.000267799 0)
(0.999527 0.000353356 0)
(0.999504 0.00040938 0)
(0.999439 0.000468366 0)
(0.999357 0.000557827 0)
(0.999312 0.000615937 0)
(0.999246 0.000674383 0)
(0.999172 0.000755892 0)
(0.999114 0.000829503 0)
(0.999034 0.000917517 0)
(0.998996 0.000990151 0)
(0.9989 0.00107873 0)
(0.998829 0.00120028 0)
(0.998813 0.00127297 0)
(0.998734 0.00137176 0)
(0.99865 0.00147689 0)
(0.998566 0.00156745 0)
(0.9985 0.00166493 0)
(0.998439 0.00174353 0)
(0.998373 0.00184278 0)
(0.998336 0.00192317 0)
(0.998305 0.00201269 0)
(0.998286 0.00208844 0)
(0.99825 0.00216952 0)
(0.998214 0.00224327 0)
(0.998169 0.0023144 0)
(0.998127 0.00238008 0)
(0.998068 0.00243907 0)
(0.997984 0.00249683 0)
(0.997845 0.00254733 0)
(0.997612 0.00259876 0)
(0.997199 0.00264189 0)
(1 -3.61115e-05 0)
(0.99995 -2.15935e-05 0)
(0.999909 3.67481e-05 0)
(0.999852 0.000126644 0)
(0.999817 0.000173079 0)
(0.999771 0.000190387 0)
(0.99973 0.00021432 0)
(0.999674 0.000241521 0)
(0.999621 0.00029188 0)
(0.999564 0.000371181 0)
(0.999535 0.000437482 0)
(0.999479 0.000496743 0)
(0.999404 0.000585585 0)
(0.999355 0.000659932 0)
(0.999297 0.000723869 0)
(0.999232 0.000806028 0)
(0.999182 0.000884426 0)
(0.999108 0.000974775 0)
(0.999074 0.00105427 0)
(0.999006 0.00113359 0)
(0.99894 0.00124862 0)
(0.998917 0.00133352 0)
(0.998861 0.00142093 0)
(0.998784 0.00152068 0)
(0.998706 0.00160757 0)
(0.998641 0.0017007 0)
(0.99859 0.00177703 0)
(0.998536 0.00186579 0)
(0.998503 0.00194397 0)
(0.998478 0.00202434 0)
(0.998463 0.00209694 0)
(0.998437 0.0021683 0)
(0.998404 0.00223751 0)
(0.998363 0.00230116 0)
(0.998318 0.00236291 0)
(0.99826 0.00241617 0)
(0.998175 0.00246941 0)
(0.998039 0.00251483 0)
(0.997807 0.00256162 0)
(0.997395 0.0026009 0)
(1 -2.25639e-05 0)
(0.999962 -9.14448e-06 0)
(0.999929 4.7854e-05 0)
(0.999875 0.000121867 0)
(0.999834 0.00017973 0)
(0.999787 0.000210201 0)
(0.999747 0.000239534 0)
(0.999695 0.000272913 0)
(0.999651 0.000319407 0)
(0.999599 0.00039029 0)
(0.999569 0.000463078 0)
(0.999521 0.000529554 0)
(0.999454 0.000615308 0)
(0.999402 0.000698273 0)
(0.99935 0.000772462 0)
(0.999295 0.000853329 0)
(0.999255 0.000933828 0)
(0.999188 0.0010268 0)
(0.999153 0.00111129 0)
(0.999107 0.00118689 0)
(0.999056 0.00128909 0)
(0.999027 0.0013807 0)
(0.998984 0.00146357 0)
(0.998917 0.00155568 0)
(0.998846 0.00163881 0)
(0.998783 0.00172566 0)
(0.998738 0.00180085 0)
(0.998696 0.00188001 0)
(0.998668 0.00195491 0)
(0.998649 0.00202748 0)
(0.998637 0.00209642 0)
(0.998618 0.00216037 0)
(0.99859 0.00222411 0)
(0.998552 0.00228163 0)
(0.998506 0.0023385 0)
(0.998448 0.00238761 0)
(0.998362 0.0024361 0)
(0.998228 0.00247795 0)
(0.997997 0.00251989 0)
(0.997585 0.00255627 0)
(1 -1.18597e-05 0)
(0.999971 3.03549e-06 0)
(0.999944 5.83945e-05 0)
(0.999894 0.000125246 0)
(0.999854 0.000183952 0)
(0.999805 0.000225734 0)
(0.999765 0.000262771 0)
(0.999716 0.000303045 0)
(0.999678 0.00035006 0)
(0.999634 0.000414655 0)
(0.999606 0.000488768 0)
(0.999562 0.0005617 0)
(0.999504 0.000647116 0)
(0.999456 0.000731866 0)
(0.999407 0.000816557 0)
(0.999358 0.000900044 0)
(0.999331 0.00097816 0)
(0.999273 0.00107249 0)
(0.999236 0.00115974 0)
(0.999203 0.00123637 0)
(0.999171 0.00132513 0)
(0.999143 0.00141573 0)
(0.999107 0.00149797 0)
(0.999048 0.00158302 0)
(0.998984 0.0016629 0)
(0.998926 0.00174253 0)
(0.998884 0.00181607 0)
(0.998852 0.00188755 0)
(0.99883 0.00195798 0)
(0.998816 0.00202382 0)
(0.998806 0.0020881 0)
(0.998793 0.00214613 0)
(0.998768 0.00220403 0)
(0.998734 0.00225617 0)
(0.998688 0.00230779 0)
(0.998629 0.00235308 0)
(0.998543 0.00239708 0)
(0.998409 0.00243565 0)
(0.998179 0.00247326 0)
(0.997768 0.00250667 0)
(1 -4.39374e-06 0)
(0.999977 1.60116e-05 0)
(0.999957 6.941e-05 0)
(0.999911 0.000136094 0)
(0.999872 0.000190644 0)
(0.999824 0.000236831 0)
(0.999786 0.000281868 0)
(0.999737 0.000329673 0)
(0.999703 0.00038107 0)
(0.999665 0.000442918 0)
(0.999642 0.000515315 0)
(0.999607 0.000591481 0)
(0.999555 0.000680512 0)
(0.999513 0.000763808 0)
(0.999472 0.000852001 0)
(0.999424 0.000943637 0)
(0.999408 0.0010181 0)
(0.999364 0.00111029 0)
(0.999325 0.00119815 0)
(0.999297 0.00127696 0)
(0.99928 0.00135702 0)
(0.999261 0.00144023 0)
(0.99923 0.00152081 0)
(0.999179 0.00159938 0)
(0.99912 0.00167706 0)
(0.999068 0.00174957 0)
(0.99903 0.00182085 0)
(0.999004 0.00188561 0)
(0.998988 0.00195165 0)
(0.998979 0.00201134 0)
(0.998971 0.00207101 0)
(0.998961 0.00212392 0)
(0.99894 0.00217653 0)
(0.998909 0.00222389 0)
(0.998865 0.00227043 0)
(0.998806 0.00231209 0)
(0.998719 0.00235189 0)
(0.998584 0.00238753 0)
(0.998355 0.00242126 0)
(0.997944 0.00245198 0)
(1 1.39806e-06 0)
(0.999981 2.75823e-05 0)
(0.999966 8.15003e-05 0)
(0.999924 0.000146775 0)
(0.999889 0.0002019 0)
(0.999845 0.0002478 0)
(0.999809 0.000297521 0)
(0.99976 0.000352067 0)
(0.999728 0.000409863 0)
(0.999695 0.000473449 0)
(0.999678 0.000545618 0)
(0.999652 0.000620437 0)
(0.999608 0.000710059 0)
(0.999572 0.000795644 0)
(0.999543 0.000880549 0)
(0.999495 0.000979014 0)
(0.999484 0.00105566 0)
(0.999455 0.00114151 0)
(0.99942 0.00122753 0)
(0.999395 0.00130667 0)
(0.999385 0.00138357 0)
(0.999376 0.00145699 0)
(0.999353 0.00153418 0)
(0.999311 0.00160628 0)
(0.999257 0.00168143 0)
(0.999209 0.00174831 0)
(0.999173 0.0018158 0)
(0.999153 0.00187542 0)
(0.999142 0.00193624 0)
(0.999137 0.00199101 0)
(0.999132 0.00204544 0)
(0.999123 0.00209422 0)
(0.999105 0.00214171 0)
(0.999077 0.00218507 0)
(0.999035 0.00222673 0)
(0.998976 0.00226503 0)
(0.998889 0.00230077 0)
(0.998752 0.0023337 0)
(0.998523 0.00236394 0)
(0.998112 0.00239222 0)
(1 5.60806e-06 0)
(0.999985 3.70237e-05 0)
(0.999974 9.45039e-05 0)
(0.999937 0.00015873 0)
(0.999904 0.000215362 0)
(0.999864 0.000261914 0)
(0.999833 0.000310506 0)
(0.999787 0.000369048 0)
(0.999755 0.000433608 0)
(0.999726 0.000502097 0)
(0.999713 0.000576476 0)
(0.999698 0.000650037 0)
(0.999664 0.000736068 0)
(0.99963 0.000825294 0)
(0.999616 0.000905313 0)
(0.999574 0.00100329 0)
(0.999562 0.00108647 0)
(0.999545 0.00116605 0)
(0.999516 0.00124898 0)
(0.999494 0.00132499 0)
(0.999487 0.00140003 0)
(0.999487 0.00146565 0)
(0.999474 0.00153693 0)
(0.999441 0.00160281 0)
(0.999393 0.00167357 0)
(0.999348 0.0017363 0)
(0.999315 0.00179909 0)
(0.999298 0.00185464 0)
(0.999291 0.00190972 0)
(0.999289 0.00196023 0)
(0.999288 0.002009 0)
(0.99928 0.0020542 0)
(0.999265 0.00209655 0)
(0.999238 0.00213657 0)
(0.999198 0.00217343 0)
(0.999139 0.0022087 0)
(0.999053 0.00224037 0)
(0.998916 0.0022708 0)
(0.998687 0.00229759 0)
(0.998275 0.00232363 0)
(1 9.1408e-06 0)
(0.999987 4.56962e-05 0)
(0.999979 0.000107041 0)
(0.999947 0.000172675 0)
(0.999919 0.000229619 0)
(0.999883 0.000277836 0)
(0.999856 0.000324899 0)
(0.999815 0.000383164 0)
(0.999786 0.000452487 0)
(0.99976 0.000526385 0)
(0.99975 0.000604831 0)
(0.99974 0.000679705 0)
(0.99972 0.000759375 0)
(0.999691 0.000849333 0)
(0.999688 0.000927396 0)
(0.999659 0.00101822 0)
(0.999646 0.0011071 0)
(0.999634 0.00118346 0)
(0.999612 0.00126317 0)
(0.999595 0.00133566 0)
(0.999588 0.00140812 0)
(0.999592 0.00146972 0)
(0.999589 0.00153394 0)
(0.999567 0.00159528 0)
(0.999528 0.00166004 0)
(0.999485 0.00172068 0)
(0.999455 0.00177869 0)
(0.999438 0.00183196 0)
(0.999435 0.00188165 0)
(0.999436 0.00192893 0)
(0.999437 0.00197253 0)
(0.999431 0.00201467 0)
(0.999418 0.00205274 0)
(0.999392 0.00208996 0)
(0.999354 0.00212314 0)
(0.999296 0.00215579 0)
(0.99921 0.00218441 0)
(0.999071 0.00221256 0)
(0.998842 0.00223688 0)
(0.998428 0.00226091 0)
(1 1.13083e-05 0)
(0.999989 5.21721e-05 0)
(0.999984 0.000117667 0)
(0.999956 0.00018598 0)
(0.999934 0.000244401 0)
(0.999901 0.000292848 0)
(0.999879 0.000340022 0)
(0.999844 0.000396888 0)
(0.99982 0.000467774 0)
(0.999797 0.000545396 0)
(0.999789 0.00062687 0)
(0.999782 0.000705434 0)
(0.999774 0.000781064 0)
(0.999752 0.000866564 0)
(0.999756 0.000943453 0)
(0.999744 0.00102294 0)
(0.999734 0.00110945 0)
(0.999724 0.00118264 0)
(0.999709 0.00125676 0)
(0.999696 0.00132395 0)
(0.999689 0.00138978 0)
(0.999695 0.00144767 0)
(0.9997 0.00150383 0)
(0.999689 0.00155947 0)
(0.999662 0.00161619 0)
(0.999624 0.00167307 0)
(0.999595 0.00172605 0)
(0.999578 0.00177642 0)
(0.999577 0.00182109 0)
(0.999579 0.00186428 0)
(0.999583 0.00190277 0)
(0.999578 0.0019409 0)
(0.999568 0.00197486 0)
(0.999544 0.00200865 0)
(0.999508 0.00203852 0)
(0.99945 0.00206813 0)
(0.999365 0.00209407 0)
(0.999226 0.00211963 0)
(0.998996 0.00214191 0)
(0.998582 0.00216384 0)
(1 1.41789e-05 0)
(0.999991 5.90633e-05 0)
(0.999988 0.000129089 0)
(0.999965 0.000200213 0)
(0.999948 0.000258664 0)
(0.999919 0.000305954 0)
(0.999902 0.000353627 0)
(0.999874 0.000411139 0)
(0.999856 0.000481331 0)
(0.999837 0.000559282 0)
(0.999832 0.000641523 0)
(0.999826 0.000723972 0)
(0.999825 0.00080133 0)
(0.999812 0.000884165 0)
(0.999819 0.000962094 0)
(0.999821 0.00103604 0)
(0.999819 0.00111924 0)
(0.99981 0.00119401 0)
(0.999798 0.001268 0)
(0.999787 0.00133468 0)
(0.999783 0.0013967 0)
(0.999788 0.00145333 0)
(0.999799 0.00150461 0)
(0.999799 0.00155626 0)
(0.999785 0.00160649 0)
(0.999755 0.0016596 0)
(0.99973 0.00170896 0)
(0.999711 0.00175727 0)
(0.999709 0.00179927 0)
(0.99971 0.0018395 0)
(0.999716 0.00187478 0)
(0.999714 0.00190922 0)
(0.999706 0.00193997 0)
(0.999684 0.0019699 0)
(0.99965 0.00199662 0)
(0.999594 0.00202227 0)
(0.999509 0.00204509 0)
(0.999371 0.00206673 0)
(0.999141 0.00208599 0)
(0.998728 0.00210417 0)
(1 1.36404e-05 0)
(0.999992 6.28464e-05 0)
(0.999992 0.000138538 0)
(0.999973 0.00021474 0)
(0.999959 0.000273187 0)
(0.999936 0.000318997 0)
(0.999925 0.000366473 0)
(0.999903 0.000425274 0)
(0.99989 0.000494202 0)
(0.999876 0.000569558 0)
(0.999876 0.000647863 0)
(0.999874 0.000727505 0)
(0.99988 0.000802221 0)
(0.999876 0.000876359 0)
(0.999887 0.000945406 0)
(0.999902 0.00100732 0)
(0.999913 0.00107289 0)
(0.999912 0.00113695 0)
(0.999904 0.00120123 0)
(0.99989 0.001262 0)
(0.999885 0.00131791 0)
(0.999888 0.00137098 0)
(0.999902 0.00141771 0)
(0.999908 0.00146452 0)
(0.999907 0.00150865 0)
(0.999889 0.00155576 0)
(0.99987 0.00160033 0)
(0.999852 0.00164476 0)
(0.999847 0.00168452 0)
(0.999845 0.00172278 0)
(0.99985 0.00175759 0)
(0.999847 0.00179168 0)
(0.999839 0.00182371 0)
(0.999817 0.00185507 0)
(0.999781 0.00188473 0)
(0.999722 0.00191324 0)