/*--------------------------------*- C++ -*----------------------------------*\
| =========                 |                                                 |
| \\      /  F ield         | OpenFOAM: The Open Source CFD Toolbox           |
|  \\    /   O peration     | Version:  2312                                  |
|   \\  /    A nd           | Website:  www.openfoam.com                      |
|    \\/     M anipulation  |                                                 |
\*---------------------------------------------------------------------------*/
FoamFile
{
    version     2.0;
    format      ascii;
    arch        "LSB;label=32;scalar=64";
    class       volScalarField;
    location    "0.05";
    object      p;
}
// * * * * * * * * * * * * * * * * * * * * * * * * * * * * * * * * * * * * * //

dimensions      [0 2 -2 0 0 0 0];

internalField   nonuniform List<scalar> 
5600
(
1.51662e-09
3.12646e-05
7.39893e-05
0.000173407
0.00019972
0.000475514
0.000269344
0.00107478
0.000293224
0.00181004
0.00133881
0.00327385
0.00218075
0.00139827
0.00152792
0.00164632
0.00127815
0.00145411
0.00170525
0.0015658
0.00155715
0.00189655
0.00206142
0.00200759
0.00215573
0.00251971
0.00277425
0.00285581
0.00301101
0.00335169
0.00376523
0.00406233
0.00424771
0.00453595
0.0049879
0.00547092
0.00592414
0.00625735
0.00649468
0.00653923
-2.2361e-07
3.09419e-05
7.38244e-05
0.000172524
0.0002007
0.000470966
0.000278483
0.00105543
0.000325457
0.00177323
0.00135755
0.00289454
0.00215961
0.00140262
0.00152974
0.00163576
0.00127757
0.00144848
0.00170395
0.00156425
0.00155503
0.00189075
0.00205702
0.00200497
0.00214547
0.00250394
0.00275912
0.00284147
0.00298437
0.00332126
0.00372242
0.0039954
0.00415073
0.00437851
0.00472756
0.00509127
0.00534794
0.00541722
0.0053289
0.00498028
-4.64483e-07
3.06542e-05
7.36408e-05
0.000171935
0.000200863
0.000468945
0.000281712
0.00105031
0.00033977
0.00176744
0.00134987
0.00272642
0.00213778
0.00140263
0.00152707
0.00163122
0.00127793
0.00144418
0.00170121
0.00156252
0.00155111
0.00188226
0.00205047
0.00200079
0.0021335
0.00248824
0.00274369
0.00282197
0.0029565
0.00327953
0.00366579
0.00392073
0.00405249
0.0042483
0.00456405
0.004886
0.00510099
0.00514675
0.00503928
0.00471224
-8.68542e-07
3.01276e-05
7.32187e-05
0.000170674
0.000201721
0.000463442
0.000291756
0.0010294
0.000376511
0.00172604
0.00135516
0.00251191
0.00210069
0.00140175
0.00152444
0.00161814
0.00127701
0.00143458
0.00169679
0.00155939
0.00154464
0.00186924
0.00204189
0.00199178
0.00211395
0.0024625
0.00271816
0.00279087
0.00291053
0.00321898
0.0035891
0.00381824
0.00391819
0.00406812
0.00430682
0.00454734
0.00467257
0.00460025
0.00438233
0.0039669
-1.4026e-06
2.94849e-05
7.26859e-05
0.000169392
0.000201922
0.000459205
0.000297461
0.0010167
0.000396337
0.00170069
0.00133881
0.00233553
0.00206215
0.0013927
0.00151091
0.00161106
0.00127741
0.00142203
0.00168811
0.00155554
0.00153438
0.001851
0.0020294
0.00198006
0.00209052
0.00242877
0.00268374
0.00275492
0.0028532
0.00313773
0.00348376
0.00369245
0.00376568
0.00387206
0.00406708
0.00426461
0.00434884
0.00425782
0.00402372
0.00361305
-2.11686e-06
2.86056e-05
7.19501e-05
0.000167507
0.000202584
0.000452035
0.000308513
0.00099046
0.000434376
0.00164509
0.00133585
0.00215665
0.00200996
0.00138325
0.00149569
0.00159798
0.00127453
0.00140445
0.00167774
0.00155173
0.00151933
0.00182685
0.00201245
0.00196336
0.00205737
0.00238286
0.00263513
0.0026998
0.00277799
0.00303563
0.0033604
0.00354864
0.00359427
0.00366471
0.00381418
0.00396651
0.00401875
0.00389635
0.00362431
0.00318767
-3.04579e-06
2.74912e-05
7.09636e-05
0.000165338
0.000202622
0.00044521
0.00031624
0.000969116
0.000458631
0.00159917
0.00131463
0.00199322
0.00195671
0.00136702
0.001468
0.00158735
0.00127373
0.00138143
0.00166054
0.00154616
0.00150033
0.00179676
0.00199049
0.00194169
0.0020164
0.00232545
0.00257571
0.00263219
0.00268644
0.0029127
0.00321333
0.00338651
0.0034117
0.00344513
0.00355684
0.00368445
0.00371851
0.00358645
0.00330947
0.00286053
-4.22898e-06
2.60774e-05
6.96982e-05
0.000162548
0.000202887
0.000435781
0.000328036
0.000935967
0.000497245
0.00152705
0.0013063
0.00183754
0.0018914
0.00135305
0.00143517
0.00157144
0.00127045
0.00135212
0.001642
0.0015411
0.00147343
0.0017568
0.0019633
0.00191505
0.00196417
0.00225444
0.00250166
0.0025498
0.00257615
0.0027664
0.00304424
0.0032103
0.00321777
0.00321773
0.00330137
0.00340684
0.00343412
0.00330238
0.00302617
0.00258931
-5.71821e-06
2.43149e-05
6.80609e-05
0.000159235
0.000202435
0.000425946
0.000336967
0.000905144
0.000524315
0.00146038
0.00128312
0.00169079
0.00182405
0.00133285
0.00138881
0.00155256
0.00127076
0.00131562
0.0016073
0.00153558
0.00144458
0.00170515
0.00193009
0.0018847
0.00190035
0.00216552
0.00241488
0.0024593
0.00245304
0.00259691
0.00284732
0.00300917
0.00300763
0.00298063
0.00304995
0.00316997
0.00323182
0.00313596
0.00286856
0.0024
-7.5714e-06
2.21354e-05
6.60075e-05
0.000155201
0.000201906
0.000413776
0.000348398
0.000864694
0.000560886
0.00137339
0.00126982
0.00155581
0.00174393
0.00132111
0.00133732
0.00152371
0.00127203
0.00127387
0.00156731
0.00152967
0.00141198
0.00163782
0.00188524
0.00185365
0.00182806
0.00205475
0.00231121
0.0023594
0.00232059
0.00240964
0.00262543
0.00278634
0.0027691
0.00267811
0.00267025
0.00275684
0.00286202
0.00290337
0.00288802
0.00294558
-9.85739e-06
1.94691e-05
6.34264e-05
0.000150429
0.000200415
0.000400624
0.00035688
0.000824817
0.000586943
0.00128963
0.0012427
0.00143077
0.00165815
0.00130021
0.00127642
0.0014837
0.00127613
0.00122927
0.00150858
0.00151997
0.00138556
0.0015589
0.00181987
0.00181906
0.00175603
0.00192534
0.0021794
0.00224925
0.00218809
0.00221104
0.00237479
0.00254344
0.00256875
0.00249483
0.00247769
0.0025707
0.00270368
0.00278147
0.00276108
0.00272011
-1.26554e-05
1.62272e-05
6.02288e-05
0.00014476
0.000198406
0.000385405
0.000365761
0.000778422
0.000615877
0.00119469
0.00121936
0.00132077
0.00155713
0.00128368
0.00121812
0.00142417
0.00127664
0.00118817
0.00143234
0.00149853
0.00136546
0.00147095
0.00172812
0.00177332
0.00169129
0.00178676
0.00201651
0.00211825
0.00205919
0.00202769
0.00212877
0.00227138
0.00231115
0.00223335
0.00216781
0.00222758
0.00239937
0.00260516
0.00283032
0.00320572
-1.60583e-05
1.23142e-05
5.62814e-05
0.000138127
0.000194842
0.000368879
0.000370982
0.000732091
0.000633451
0.0011037
0.00117729
0.0012231
0.00144952
0.00126055
0.0011602
0.00135051
0.00127008
0.0011529
0.00134253
0.00145713
0.00135067
0.00138826
0.00161081
0.0017016
0.0016304
0.00165464
0.00183287
0.00195851
0.00192544
0.00185986
0.00189463
0.00200493
0.00207931
0.0020593
0.00201392
0.002051
0.00220371
0.00242517
0.00268101
0.00304498
-2.01732e-05
7.61531e-06
5.14526e-05
0.000130365
0.000190413
0.00035055
0.000374115
0.000682939
0.000646215
0.00101248
0.0011293
0.00114128
0.00133288
0.00122691
0.0011138
0.00126194
0.00124394
0.00112769
0.0012525
0.00138924
0.00132603
0.00131305
0.00147955
0.00159952
0.00156024
0.00153608
0.00164711
0.00177022
0.00177314
0.00170644
0.00169367
0.00176213
0.00183971
0.0018578
0.001837
0.00185832
0.00197715
0.0021867
0.00246735
0.00287249
-2.51237e-05
2.00327e-06
4.55729e-05
0.000121377
0.000184076
0.000330757
0.000372314
0.000634384
0.000645738
0.000928323
0.0010677
0.00106629
0.00121871
0.00117729
0.00106651
0.00117037
0.00119784
0.00110138
0.00116452
0.00129682
0.00128146
0.0012465
0.00134981
0.00146743
0.00146543
0.00142666
0.00147503
0.00156905
0.00159876
0.0015535
0.00151677
0.00154114
0.0016
0.00163968
0.00165037
0.00167802
0.00177535
0.00196259
0.00224261
0.0026591
-3.10515e-05
-4.67e-06
3.84635e-05
0.000110972
0.000175748
0.000309264
0.000366192
0.000585598
0.000635055
0.000849588
0.000995361
0.000999899
0.00110774
0.00111024
0.0010228
0.00108116
0.001128
0.00106544
0.00108697
0.00119161
0.00121055
0.00117749
0.00122728
0.00132048
0.00134449
0.00131238
0.00131825
0.00137346
0.00140762
0.00138574
0.0013474
0.00134227
0.00137518
0.00141563
0.00144506
0.00148336
0.00156987
0.00173481
0.00199888
0.00241175
-3.81181e-05
-1.25709e-05
2.99147e-05
9.89831e-05
0.000164994
0.000286111
0.000353836
0.000537645
0.000611003
0.000776826
0.000914766
0.000929277
0.00100394
0.00102983
0.000969214
0.000994497
0.00104381
0.00101276
0.00101015
0.0010802
0.00111462
0.00109553
0.00111113
0.00117025
0.00120018
0.00118226
0.00116908
0.00118941
0.00121223
0.00120389
0.00117399
0.00115537
0.00116463
0.00119282
0.00122653
0.00127206
0.00135485
0.0015049
0.00175306
0.00215554
-4.65065e-05
-2.1889e-05
1.97009e-05
8.51868e-05
0.000151511
0.000261008
0.000336148
0.000489732
0.000576826
0.000707086
0.000829278
0.000856001
0.000906409
0.00093892
0.000904853
0.000911607
0.000949773
0.000940448
0.000930572
0.000969649
0.00100239
0.000995573
0.000994234
0.0010227
0.00104523
0.00103672
0.00101807
0.00101515
0.0010212
0.00101435
0.000991593
0.000969549
0.000963784
0.00097703
0.00100523
0.00105127
0.00113144
0.00127154
0.00150558
0.00189324
-5.64224e-05
-3.28367e-05
7.57217e-06
6.93412e-05
0.00013494
0.00023376
0.000312154
0.000441499
0.000532256
0.000638124
0.000741757
0.000776363
0.000811931
0.000842736
0.00082785
0.000825513
0.000849918
0.000851173
0.000841338
0.000857743
0.000879542
0.000878424
0.000870438
0.000877091
0.00088624
0.000878972
0.000859522
0.000843938
0.000835184
0.000823522
0.000803396
0.000781073
0.000767201
0.000768372
0.000787078
0.000827824
0.000902986
0.00103425
0.00125488
0.00162454
-6.80947e-05
-4.56511e-05
-6.73877e-06
5.11654e-05
0.000114988
0.000203925
0.000282187
0.000391665
0.000479846
0.000567792
0.000653011
0.00069093
0.000717921
0.000742717
0.000738966
0.000734058
0.000745915
0.000748595
0.000740098
0.000742218
0.000751034
0.000748472
0.000737069
0.000730022
0.000725988
0.000714625
0.000694231
0.000672355
0.000653467
0.000634935
0.000613329
0.000590418
0.000572303
0.000565268
0.000574606
0.000606909
0.000673663
0.000794122
0.000999684
0.00134744
-8.17762e-05
-6.05938e-05
-2.35174e-05
3.03524e-05
9.13605e-05
0.000171087
0.000246267
0.000339422
0.000420511
0.000494545
0.000563307
0.000600019
0.000621625
0.000639705
0.000640393
0.000634792
0.000637024
0.000636316
0.000627366
0.000620462
0.000617547
0.000609561
0.000594693
0.000579114
0.000564709
0.000547237
0.000524304
0.000498651
0.000473497
0.000449147
0.000424448
0.000399982
0.000379014
0.000366369
0.00036777
0.000390702
0.00044659
0.000553479
0.000740809
0.00106163
-9.77421e-05
-7.79493e-05
-4.30636e-05
6.57091e-06
6.37998e-05
0.000134782
0.000204633
0.000283814
0.000355453
0.000417564
0.000472101
0.00050451
0.000521747
0.000533437
0.00053401
0.000527399
0.00052248
0.000516262
0.000504552
0.00049134
0.000479152
0.000464509
0.000445307
0.000423804
0.00040184
0.00037835
0.000351965
0.000323443
0.000294504
0.000266094
0.000238287
0.000211653
0.000188176
0.000171387
0.000166378
0.000180428
0.000224515
0.000315612
0.000481077
0.000769179
-0.000116288
-9.8022e-05
-6.56877e-05
-2.0523e-05
3.2061e-05
9.45844e-05
0.000157457
0.00022423
0.000285269
0.000336466
0.000378714
0.000404905
0.000417598
0.000423349
0.000421084
0.000412201
0.000401656
0.000389507
0.000373576
0.000355088
0.000335754
0.000314708
0.000290728
0.000264473
0.000237099
0.000208727
0.000178908
0.000147864
0.000116404
8.53384e-05
5.51589e-05
2.65567e-05
9.59914e-07
-1.90167e-05
-2.91969e-05
-2.31347e-05
9.13592e-06
8.3128e-05
0.000223709
0.000473759
-0.000137725
-0.000121131
-9.1705e-05
-5.12738e-05
-4.08098e-06
5.01056e-05
0.000104892
0.000160245
0.00021031
0.000251061
0.000282481
0.00030144
0.000308918
0.000309
0.000302448
0.000290086
0.000274562
0.000256773
0.000236007
0.000212623
0.000187593
0.000161014
0.000132476
0.000102205
7.08423e-05
3.8783e-05
6.07119e-06
-2.71069e-05
-6.03306e-05
-9.30429e-05
-0.000124738
-0.000154747
-0.000181959
-0.000204393
-0.000218741
-0.000219634
-0.000198516
-0.000141829
-2.77835e-05
0.000180536
-0.000162375
-0.000147602
-0.000121427
-8.60104e-05
-4.48294e-05
1.02642e-06
4.70367e-05
9.15706e-05
0.000130751
0.000161361
0.000182915
0.000194212
0.000195827
0.000190238
0.000178702
0.000162027
0.000141719
0.000118726
9.31152e-05
6.51421e-05
3.53968e-05
4.24604e-06
-2.82618e-05
-6.19149e-05
-9.63106e-05
-0.000131062
-0.000165946
-0.000200738
-0.00023516
-0.000268837
-0.000301367
-0.000332194
-0.000360458
-0.000384663
-0.00040227
-0.000409019
-0.000397943
-0.000357773
-0.000270255
-0.000104822
-0.000190556
-0.000177753
-0.000155149
-0.000125029
-9.03549e-05
-5.28813e-05
-1.60181e-05
1.80959e-05
4.66974e-05
6.7444e-05
7.97521e-05
8.32871e-05
7.85817e-05
6.72092e-05
5.03874e-05
2.89632e-05
3.94607e-06
-2.38394e-05
-5.39899e-05
-8.61605e-05
-0.000119883
-0.000154764
-0.00019054
-0.000226936
-0.000263634
-0.000300304
-0.000336694
-0.000372573
-0.000407723
-0.000441877
-0.000474741
-0.000505895
-0.000534704
-0.000560073
-0.000580124
-0.000591633
-0.000589212
-0.000563981
-0.00050141
-0.000377332
-0.000222573
-0.000211884
-0.000193137
-0.000168576
-0.000140781
-0.000111745
-8.41695e-05
-6.01529e-05
-4.17425e-05
-3.05511e-05
-2.70538e-05
-3.12084e-05
-4.24574e-05
-5.96997e-05
-8.18876e-05
-0.000108188
-0.000137794
-0.000169987
-0.000204248
-0.000240135
-0.00027723
-0.00031513
-0.000353497
-0.000392024
-0.000430424
-0.000468418
-0.000505777
-0.000542292
-0.000577786
-0.000612064
-0.000644917
-0.000676052
-0.000705027
-0.000731077
-0.000752877
-0.00076811
-0.000772832
-0.000760427
-0.00071997
-0.00063334
-0.0002587
-0.000250255
-0.000235606
-0.000216826
-0.000196165
-0.000175585
-0.000157271
-0.000143038
-0.000134399
-0.00013241
-0.000137357
-0.000149023
-0.000166836
-0.000189929
-0.000217412
-0.000248501
-0.000282478
-0.000318692
-0.000356588
-0.000395706
-0.00043562
-0.000475932
-0.000516299
-0.00055642
-0.000596031
-0.000634896
-0.000672818
-0.000709625
-0.000745176
-0.00077933
-0.000811947
-0.000842838
-0.000871718
-0.000898089
-0.000921072
-0.000939102
-0.000949465
-0.000947544
-0.000925638
-0.000870985
-0.000299153
-0.00029306
-0.000282697
-0.000269863
-0.000256474
-0.000244302
-0.000235098
-0.000230306
-0.000230998
-0.00023781
-0.000250834
-0.00026975
-0.000293981
-0.000322779
-0.000355365
-0.000391013
-0.000429055
-0.000468881
-0.000509956
-0.000551813
-0.000594033
-0.000636245
-0.000678126
-0.0007194
-0.000759832
-0.000799223
-0.000837411
-0.00087426
-0.000909665
-0.000943533
-0.000975778
-0.00100629
-0.00103491
-0.00106134
-0.00108506
-0.00110508
-0.00111969
-0.00112592
-0.00111879
-0.00109
-0.000344061
-0.000340403
-0.000334453
-0.000327654
-0.000321568
-0.000317676
-0.00031733
-0.000321589
-0.000331148
-0.000346318
-0.000367012
-0.000392839
-0.000423214
-0.000457453
-0.000494845
-0.000534719
-0.000576452
-0.000619473
-0.000663274
-0.000707407
-0.000751484
-0.000795168
-0.000838171
-0.000880247
-0.000921198
-0.000960856
-0.000999094
-0.00103581
-0.00107094
-0.00110442
-0.00113621
-0.00116628
-0.00119454
-0.00122087
-0.00124499
-0.00126636
-0.00128403
-0.0012963
-0.00130031
-0.00129124
-0.000393434
-0.000392251
-0.000390765
-0.000390002
-0.000391136
-0.000395302
-0.000403471
-0.000416333
-0.000434256
-0.000457292
-0.000485204
-0.000517534
-0.000553693
-0.000593025
-0.000634863
-0.000678564
-0.000723558
-0.000769329
-0.000815408
-0.000861387
-0.000906916
-0.000951698
-0.000995488
-0.00103808
-0.00107931
-0.00111906
-0.00115721
-0.00119372
-0.00122851
-0.00126158
-0.00129289
-0.00132244
-0.00135022
-0.0013762
-0.00140029
-0.00142233
-0.00144196
-0.0014585
-0.0014708
-0.00147681
-0.000447128
-0.000448434
-0.000451401
-0.000456595
-0.000464779
-0.000476709
-0.000492987
-0.000513959
-0.000539708
-0.000570071
-0.000604683
-0.000643031
-0.000684518
-0.000728506
-0.000774364
-0.000821506
-0.00086938
-0.000917502
-0.000965458
-0.00101289
-0.00105949
-0.00110502
-0.00114926
-0.00119207
-0.00123333
-0.00127296
-0.00131091
-0.00134712
-0.0013816
-0.00141434
-0.00144537
-0.00147471
-0.0015024
-0.00152846
-0.0015529
-0.00157568
-0.0015967
-0.00161577
-0.0016325
-0.00164628
-0.000504735
-0.000508464
-0.000515765
-0.000526709
-0.00054162
-0.000560884
-0.000584754
-0.000613269
-0.000646256
-0.00068337
-0.000724129
-0.000767961
-0.000814251
-0.000862383
-0.000911771
-0.00096187
-0.00101218
-0.00106226
-0.00111172
-0.00116023
-0.00120752
-0.00125335
-0.00129756
-0.00134001
-0.00138063
-0.00141939
-0.00145629
-0.00149134
-0.00152459
-0.00155611
-0.00158595
-0.00161421
-0.00164098
-0.00166642
-0.00169071
-0.00171414
-0.00173717
-0.00176052
-0.00178536
-0.00181337
-0.000565813
-0.000572014
-0.000583614
-0.000600172
-0.000621566
-0.000647798
-0.000678789
-0.000714302
-0.000753949
-0.00079723
-0.000843573
-0.000892364
-0.000942982
-0.000994828
-0.00104735
-0.00110004
-0.00115248
-0.00120431
-0.00125523
-0.00130501
-0.00135347
-0.00140046
-0.00144585
-0.00148954
-0.00153146
-0.00157154
-0.00160974
-0.00164605
-0.00168045
-0.00171295
-0.00174359
-0.00177236
-0.00179929
-0.00182435
-0.00184751
-0.00186862
-0.00188748
-0.0019037
-0.00191673
-0.0019258
-0.000628801
-0.000636983
-0.000652234
-0.000673693
-0.000700835
-0.000733277
-0.000770617
-0.000812356
-0.000857912
-0.00090665
-0.000957913
-0.00101104
-0.00106537
-0.00112031
-0.00117527
-0.00122972
-0.0012832
-0.00133528
-0.00138561
-0.00143392
-0.00147997
-0.00152363
-0.00156481
-0.00160347
-0.0016396
-0.00167326
-0.00170452
-0.0017335
-0.00176035
-0.00178532
-0.00180876
-0.00183126
-0.00185382
-0.00187811
-0.00190695
-0.00194499
-0.00199975
-0.00208321
-0.00221455
-0.00242558
-0.000694243
-0.000704904
-0.000724267
-0.000750899
-0.000783807
-0.000822284
-0.000865686
-0.000913315
-0.000964435
-0.00101831
-0.00107424
-0.00113156
-0.00118968
-0.00124808
-0.00130631
-0.00136402
-0.00142092
-0.00147678
-0.00153142
-0.0015847
-0.00163652
-0.00168677
-0.00173538
-0.00178229
-0.00182747
-0.00187087
-0.00191247
-0.00195224
-0.00199014
-0.00202605
-0.00205978
-0.00209091
-0.00211865
-0.00214158
-0.00215716
-0.0021611
-0.00214634
-0.00210147
-0.00200817
-0.0018359
-0.00075537
-0.000767307
-0.000789223
-0.000819438
-0.000856697
-0.000899927
-0.00094815
-0.00100044
-0.00105593
-0.00111375
-0.0011731
-0.00123324
-0.00129348
-0.00135322
-0.00141192
-0.00146913
-0.00152446
-0.00157763
-0.00162842
-0.00167669
-0.00172237
-0.00176542
-0.00180588
-0.00184381
-0.00187929
-0.00191243
-0.00194336
-0.00197222
-0.00199919
-0.00202449
-0.00204843
-0.00207153
-0.0020946
-0.00211905
-0.00214727
-0.00218324
-0.00223348
-0.00230853
-0.0024253
-0.00261185
-0.00082106
-0.000835375
-0.000861096
-0.00089599
-0.000938279
-0.000986646
-0.00104002
-0.00109737
-0.00115771
-0.00122014
-0.00128385
-0.00134815
-0.00141243
-0.0014762
-0.00153903
-0.00160059
-0.0016606
-0.00171885
-0.00177519
-0.00182947
-0.00188163
-0.00193159
-0.00197932
-0.0020248
-0.00206804
-0.00210905
-0.00214787
-0.00218451
-0.00221901
-0.00225133
-0.0022814
-0.00230893
-0.00233342
-0.00235381
-0.0023682
-0.00237325
-0.00236332
-0.00232916
-0.00225566
-0.00211785
-0.000865632
-0.000880435
-0.000907428
-0.000944303
-0.000989198
-0.00104049
-0.00109679
-0.0011569
-0.00121974
-0.00128433
-0.00134975
-0.00141521
-0.00148003
-0.00154363
-0.00160552
-0.00166533
-0.00172274
-0.00177756
-0.00182964
-0.00187892
-0.00192537
-0.00196902
-0.00200993
-0.00204818
-0.00208389
-0.00211717
-0.00214815
-0.00217698
-0.00220382
-0.00222886
-0.00225237
-0.00227471
-0.0022965
-0.00231874
-0.00234317
-0.00237269
-0.00241215
-0.00246948
-0.00255764
-0.00269776
-0.000928024
-0.000944901
-0.000975301
-0.00101643
-0.00106585
-0.00112175
-0.00118278
-0.00124773
-0.00131545
-0.00138488
-0.00145512
-0.0015254
-0.00159507
-0.00166357
-0.00173043
-0.00179528
-0.00185782
-0.00191783
-0.00197514
-0.00202965
-0.00208128
-0.00213003
-0.00217592
-0.00221899
-0.00225931
-0.00229697
-0.00233208
-0.00236474
-0.00239506
-0.0024231
-0.00244893
-0.00247247
-0.00249353
-0.00251159
-0.00252561
-0.00253369
-0.00253244
-0.00251615
-0.00247525
-0.00239404
0.00631199
0.00636779
0.0065511
0.00656177
0.00637025
0.00607336
0.0057457
0.00539752
0.00502813
0.00465662
0.00432005
0.00405218
0.00384653
0.00366757
0.00349435
0.00330775
0.00313087
0.00296694
0.00279583
0.00260775
0.00242502
0.00225094
0.00207968
0.00191792
0.00173705
0.00160784
0.00146109
0.0012617
0.00108887
0.000832818
0.000592419
0.000439119
0.000290118
0.000138869
-0.000147
-0.000409988
-0.000572252
-0.000883452
-0.00114411
-0.00134594
-0.00177649
-0.00210958
-0.00231168
-0.00287448
-0.00349755
-0.00375494
-0.00420686
-0.00531867
-0.00643882
-0.00678386
-0.00639976
-0.00579019
-0.00530754
-0.00503762
-0.00492535
-0.00490933
-0.00494769
-0.00501756
-0.00510675
-0.00521036
-0.00532661
-0.00545446
-0.0055938
-0.00574441
-0.00590614
-0.0060789
-0.00626265
-0.00645744
-0.00666341
-0.00688072
-0.00710965
-0.00735049
-0.0076036
-0.00786939
-0.00814833
-0.00844092
-0.00874771
-0.00906929
-0.0094063
-0.00975941
-0.0101294
-0.0105169
-0.0109229
-0.0113481
-0.0117935
-0.01226
-0.0127487
-0.0132605
-0.0137965
-0.0143581
-0.0149462
-0.0155625
-0.0162071
-0.0168843
-0.0175887
-0.0183351
-0.0190986
-0.0199121
-0.0207286
-0.0214966
0.00460732
0.00468343
0.00511595
0.00550742
0.00569703
0.00567065
0.00547753
0.00519021
0.00485993
0.00452881
0.00421608
0.00394558
0.00373479
0.00356195
0.0034157
0.00325585
0.00308606
0.00291702
0.00275403
0.00258062
0.00239361
0.00221395
0.00205157
0.00189333
0.00170611
0.00158002
0.00143268
0.00123324
0.00106605
0.000803878
0.000572323
0.000424694
0.000270829
0.000117277
-0.000173208
-0.000427633
-0.000586047
-0.000905052
-0.00116038
-0.00135882
-0.00179643
-0.0021221
-0.0023175
-0.00288122
-0.00350193
-0.0037463
-0.00419706
-0.00528789
-0.00639256
-0.00672706
-0.00634579
-0.0057615
-0.00529871
-0.00503983
-0.00493101
-0.00491485
-0.0049519
-0.00502046
-0.00510853
-0.00521137
-0.00532698
-0.00545451
-0.00559376
-0.00574436
-0.00590609
-0.00607885
-0.00626261
-0.00645741
-0.00666338
-0.0068807
-0.00710963
-0.00735047
-0.00760358
-0.00786938
-0.00814832
-0.00844091
-0.0087477
-0.00906928
-0.00940629
-0.00975941
-0.0101294
-0.0105169
-0.0109229
-0.0113481
-0.0117935
-0.01226
-0.0127486
-0.0132605
-0.0137965
-0.0143581
-0.0149462
-0.0155625
-0.0162071
-0.0168843
-0.0175887
-0.0183351
-0.0190986
-0.0199121
-0.0207286
-0.0214968
0.00438074
0.0044911
0.00497176
0.00541696
0.00565871
0.00566737
0.00548763
0.00519806
0.00486216
0.00452871
0.00421345
0.00393212
0.00370621
0.00352542
0.00338025
0.00323706
0.00307335
0.00289929
0.002734
0.0025675
0.00238607
0.0022071
0.00203705
0.00186898
0.0016851
0.00153332
0.00138763
0.00119563
0.00100665
0.000796796
0.000596406
0.000416115
0.000230028
5.5591e-05
-0.000195621
-0.000438646
-0.000628316
-0.000919983
-0.0011784
-0.00140646
-0.00179895
-0.00212581
-0.00237136
-0.00288108
-0.00344125
-0.00375206
-0.0042101
-0.00515245
-0.00607698
-0.00639748
-0.00614554
-0.00567496
-0.00528041
-0.00504219
-0.00493616
-0.00491722
-0.00495162
-0.00501901
-0.00510699
-0.00521006
-0.00532636
-0.0054543
-0.00559363
-0.00574425
-0.005906
-0.00607878
-0.00626255
-0.00645736
-0.00666334
-0.00688067
-0.0071096
-0.00735045
-0.00760356
-0.00786937
-0.00814831
-0.00844091
-0.0087477
-0.00906928
-0.00940629
-0.00975941
-0.0101294
-0.0105169
-0.0109229
-0.0113481
-0.0117935
-0.01226
-0.0127486
-0.0132605
-0.0137965
-0.0143581
-0.0149462
-0.0155625
-0.0162071
-0.0168843
-0.0175887
-0.0183351
-0.0190986
-0.0199121
-0.0207287
-0.0214969
0.00359321
0.00368373
0.00417152
0.00466137
0.00497644
0.00507759
0.00498753
0.00477565
0.00450462
0.00422265
0.00395526
0.00371001
0.00350789
0.00334358
0.00321194
0.00308802
0.00295283
0.0027968
0.0026329
0.00247501
0.0023098
0.00213592
0.00196018
0.00179899
0.00161861
0.00146606
0.00132811
0.00113548
0.000955446
0.000756273
0.000552575
0.000375371
0.000183074
1.09326e-05
-0.000225949
-0.000479177
-0.000664953
-0.000940423
-0.00121569
-0.00143899
-0.00180367
-0.00215176
-0.00240159
-0.0028651
-0.00341615
-0.00375493
-0.00418263
-0.00501857
-0.00588506
-0.00623443
-0.00602922
-0.00562787
-0.00526256
-0.00504593
-0.00494635
-0.00492732
-0.00495936
-0.00502431
-0.00511023
-0.00521222
-0.00532678
-0.00545418
-0.00559342
-0.00574406
-0.00590584
-0.00607864
-0.00626244
-0.00645727
-0.00666327
-0.00688061
-0.00710956
-0.00735041
-0.00760354
-0.00786934
-0.00814829
-0.00844089
-0.00874768
-0.00906927
-0.00940628
-0.0097594
-0.0101294
-0.0105169
-0.0109229
-0.0113481
-0.0117935
-0.01226
-0.0127486
-0.0132605
-0.0137965
-0.0143581
-0.0149462
-0.0155625
-0.0162071
-0.0168843
-0.0175887
-0.0183351
-0.0190986
-0.0199121
-0.0207288
-0.0214971
0.00326549
0.00337875
0.00389637
0.00442007
0.00477257
0.00490957
0.00484903
0.00465803
0.00440426
0.00413607
0.00388065
0.00364597
0.00344548
0.00328354
0.00315048
0.00303104
0.00290809
0.00276223
0.00259876
0.00243784
0.00228284
0.00211678
0.00193493
0.0017657
0.00159555
0.00143439
0.00129009
0.00111202
0.000915284
0.000727903
0.000549465
0.000358073
0.000159284
-2.50265e-05
-0.000256269
-0.000491986
-0.000693636
-0.000962452
-0.00122597
-0.0014672
-0.00181723
-0.0021475
-0.00242017
-0.00286204
-0.0033723
-0.00372104
-0.00415553
-0.00489679
-0.00562842
-0.00592423
-0.00579853
-0.00549366
-0.00521497
-0.00503083
-0.00494185
-0.00492482
-0.00495622
-0.00502105
-0.00510695
-0.00520976
-0.00532577
-0.00545366
-0.00559306
-0.00574377
-0.00590561
-0.00607846
-0.00626229
-0.00645716
-0.00666318
-0.00688054
-0.0071095
-0.00735037
-0.0076035
-0.00786932
-0.00814827
-0.00844087
-0.00874767
-0.00906926
-0.00940627
-0.0097594
-0.0101293
-0.0105169
-0.0109229
-0.0113481
-0.0117935
-0.01226
-0.0127486
-0.0132605
-0.0137965
-0.0143581
-0.0149462
-0.0155625
-0.0162071
-0.0168843
-0.0175888
-0.0183351
-0.0190986
-0.0199122
-0.0207289
-0.0214972
0.00283389
0.00294037
0.0034519
0.00397716
0.00434017
0.00449651
0.00446057
0.00429477
0.00406786
0.00382793
0.00360081
0.00339413
0.00321765
0.00307557
0.00296264
0.00285858
0.00275063
0.00262151
0.00246807
0.00231179
0.0021606
0.00200854
0.00183362
0.00166633
0.00150707
0.00134771
0.0012083
0.00103657
0.000845058
0.000666344
0.000488002
0.000301949
0.000103519
-8.14066e-05
-0.00029784
-0.000537904
-0.000743511
-0.000992115
-0.00126231
-0.00150897
-0.00183072
-0.00216485
-0.00245301
-0.00285422
-0.00333225
-0.00371037
-0.00412237
-0.00476381
-0.00542134
-0.00575499
-0.00569818
-0.00544448
-0.00519556
-0.00503004
-0.00494934
-0.00493359
-0.00496357
-0.00502642
-0.00511175
-0.00521151
-0.00532586
-0.00545323
-0.00559259
-0.00574337
-0.00590528
-0.0060782
-0.00626209
-0.006457
-0.00666305
-0.00688044
-0.00710942
-0.00735031
-0.00760346
-0.00786928
-0.00814825
-0.00844085
-0.00874766
-0.00906925
-0.00940627
-0.00975939
-0.0101293
-0.0105169
-0.0109229
-0.0113481
-0.0117935
-0.01226
-0.0127486
-0.0132605
-0.0137965
-0.0143581
-0.0149462
-0.0155625
-0.0162071
-0.0168843
-0.0175888
-0.0183351
-0.0190986
-0.0199122
-0.020729
-0.0214974
0.00250321
0.00262048
0.00314813
0.00368459
0.00405433
0.00421629
0.00418696
0.00403009
0.00381507
0.00359273
0.00338658
0.00320403
0.00305015
0.00292651
0.0028301
0.00273871
0.00264349
0.00252989
0.00238948
0.00223546
0.00208357
0.0019405
0.00178097
0.0016177
0.0014613
0.00130502
0.00116357
0.00100049
0.000805415
0.000626516
0.000462436
0.000273369
7.29278e-05
-0.000111508
-0.000326469
-0.000559439
-0.000769928
-0.00101568
-0.00127636
-0.00152639
-0.00184137
-0.0021655
-0.002454
-0.00283937
-0.00329029
-0.00366094
-0.00406186
-0.00463661
-0.00520863
-0.00549154
-0.00546471
-0.00528892
-0.00511288
-0.00499407
-0.00493071
-0.00492241
-0.00495418
-0.00501927
-0.00510513
-0.00520794
-0.00532407
-0.0054522
-0.00559186
-0.00574281
-0.00590485
-0.00607786
-0.00626182
-0.00645679
-0.00666289
-0.00688032
-0.00710933
-0.00735023
-0.0076034
-0.00786924
-0.00814821
-0.00844083
-0.00874764
-0.00906923
-0.00940626
-0.00975938
-0.0101293
-0.0105169
-0.0109229
-0.0113481
-0.0117935
-0.01226
-0.0127486
-0.0132605
-0.0137965
-0.0143581
-0.0149462
-0.0155625
-0.0162071
-0.0168843
-0.0175888
-0.0183351
-0.0190986
-0.0199123
-0.0207291
-0.0214976
0.00224545
0.00237549
0.00291692
0.00345854
0.00382245
0.00396951
0.00392247
0.0037524
0.00353418
0.00331914
0.00313083
0.00297017
0.00283861
0.00272953
0.0026436
0.00256358
0.00247882
0.00237799
0.00224493
0.00209284
0.00193884
0.00180654
0.00166774
0.00151144
0.00135567
0.00119975
0.00107021
0.00091911
0.000720542
0.000548253
0.000393878
0.000206745
8.76529e-06
-0.000174861
-0.000378416
-0.000605997
-0.000823729
-0.00105751
-0.00131044
-0.00156518
-0.00186261
-0.00217709
-0.00247439
-0.00283363
-0.00325032
-0.00362607
-0.00401357
-0.00451379
-0.00501848
-0.00532105
-0.00536642
-0.00525314
-0.00510725
-0.00499153
-0.00493537
-0.00492992
-0.00496231
-0.00502669
-0.00510969
-0.00520934
-0.00532371
-0.00545132
-0.00559101
-0.0057421
-0.00590428
-0.00607742
-0.00626148
-0.00645652
-0.00666269
-0.00688016
-0.00710921
-0.00735014
-0.00760333
-0.00786919
-0.00814817
-0.0084408
-0.00874762
-0.00906922
-0.00940625
-0.00975938
-0.0101293
-0.0105169
-0.0109229
-0.0113481
-0.0117935
-0.01226
-0.0127486
-0.0132605
-0.0137965
-0.0143581
-0.0149462
-0.0155625
-0.0162071
-0.0168843
-0.0175888
-0.0183351
-0.0190986
-0.0199123
-0.0207293
-0.0214978
0.0019994
0.00208514
0.00257787
0.00307732
0.00341325
0.00354884
0.00351207
0.00337111
0.00319513
0.00302611
0.00288197
0.00275421
0.00263699
0.00252735
0.00243979
0.00237225
0.0023058
0.00222354
0.00210293
0.00195657
0.00180833
0.00169256
0.00158202
0.0014357
0.00127543
0.00111871
0.000995885
0.00086422
0.000667201
0.000485502
0.000345454
0.00016607
-3.69664e-05
-0.000216373
-0.00041426
-0.000636208
-0.000851887
-0.00108556
-0.00133204
-0.00158002
-0.0018702
-0.00217791
-0.00246942
-0.00281101
-0.00320466
-0.00356824
-0.00393568
-0.00438655
-0.00483192
-0.00509987
-0.00515198
-0.00508479
-0.0049956
-0.00492861
-0.0048993
-0.00490665
-0.00494785
-0.00501309
-0.00510013
-0.00520381
-0.00532076
-0.00544956
-0.00558976
-0.00574115
-0.00590355
-0.00607685
-0.00626104
-0.00645619
-0.00666243
-0.00687996
-0.00710906
-0.00735003
-0.00760325
-0.00786912
-0.00814813
-0.00844077
-0.00874759
-0.0090692
-0.00940623
-0.00975937
-0.0101293
-0.0105169
-0.0109229
-0.0113481
-0.0117935
-0.01226
-0.0127486
-0.0132605
-0.0137966
-0.0143581
-0.0149462
-0.0155625
-0.0162071
-0.0168843
-0.0175888
-0.0183351