/*--------------------------------*- C++ -*----------------------------------*\
| =========                 |                                                 |
| \\      /  F ield         | OpenFOAM: The Open Source CFD Toolbox           |
|  \\    /   O peration     | Version:  2312                                  |
|   \\  /    A nd           | Website:  www.openfoam.com                      |
|    \\/     M anipulation  |                                                 |
\*---------------------------------------------------------------------------*/
FoamFile
{
    version     2.0;
    format      ascii;
    arch        "LSB;label=32;scalar=64";
    class       surfaceScalarField;
    location    "0.05";
    object      phi;
}
// * * * * * * * * * * * * * * * * * * * * * * * * * * * * * * * * * * * * * //

dimensions      [0 3 -1 0 0 0 0];

oriented        oriented;

internalField   nonuniform List<scalar> 
11020
(
3.87635e-06
5.65749e-11
3.87627e-06
2.97209e-10
3.87623e-06
-2.10088e-11
3.87594e-06
2.12665e-09
3.87632e-06
-4.80586e-09
3.8747e-06
1.78974e-08
3.87788e-06
-4.32679e-08
3.87128e-06
9.54458e-08
3.88102e-06
-1.57961e-07
3.87004e-06
1.91744e-07
3.8773e-06
-1.36574e-07
3.87675e-06
6.04175e-10
3.87187e-06
9.32707e-08
3.87437e-06
-3.12876e-08
3.87475e-06
-7.1597e-08
3.87314e-06
3.23877e-08
3.87227e-06
5.11429e-08
3.87258e-06
4.24601e-09
3.87182e-06
-3.96132e-08
3.87139e-06
-2.49674e-08
3.87066e-06
5.87302e-09
3.87028e-06
2.91909e-08
3.8697e-06
2.36042e-08
3.86942e-06
7.72134e-09
3.86859e-06
-1.02871e-08
3.86768e-06
-1.57631e-08
3.86664e-06
-1.39834e-08
3.86592e-06
-4.15822e-09
3.86499e-06
4.1917e-09
3.86397e-06
9.89382e-09
3.86301e-06
1.20651e-08
3.86208e-06
1.46358e-08
3.86063e-06
1.22605e-08
3.859e-06
8.86647e-09
3.85697e-06
6.36905e-09
3.85503e-06
4.73495e-09
3.85314e-06
4.88895e-09
3.85074e-06
6.40303e-09
3.84811e-06
7.34313e-09
9.75569e-09
3.84495e-06
4.18584e-06
8.02666e-11
4.18576e-06
3.72144e-10
4.1857e-06
4.17121e-11
4.18547e-06
2.35093e-09
4.1855e-06
-4.82835e-09
4.18511e-06
1.82832e-08
4.18465e-06
-4.28038e-08
4.18664e-06
9.34531e-08
4.18078e-06
-1.521e-07
4.19084e-06
1.81687e-07
4.18124e-06
-1.26981e-07
4.18322e-06
-1.37342e-09
4.18722e-06
8.92681e-08
4.18587e-06
-2.99378e-08
4.1779e-06
-6.3624e-08
4.18095e-06
2.93357e-08
4.18532e-06
4.6774e-08
4.18623e-06
3.33923e-09
4.1799e-06
-3.32904e-08
4.17661e-06
-2.16712e-08
4.17634e-06
6.14418e-09
4.17985e-06
2.56738e-08
4.18178e-06
2.16781e-08
4.18222e-06
7.2787e-09
4.17955e-06
-7.60974e-09
4.17631e-06
-1.25281e-08
4.17293e-06
-1.05989e-08
4.17131e-06
-2.54549e-09
4.17053e-06
4.97748e-09
4.17047e-06
9.94705e-09
4.17073e-06
1.18113e-08
4.17154e-06
1.38289e-08
4.17119e-06
1.2609e-08
4.17028e-06
9.77298e-09
4.16876e-06
7.88886e-09
4.16709e-06
6.40089e-09
4.16561e-06
6.37207e-09
4.16437e-06
7.64713e-09
4.1635e-06
8.2074e-09
9.93041e-09
4.16333e-06
4.52004e-06
1.06141e-10
4.51996e-06
4.50716e-10
4.51988e-06
1.18789e-10
4.51968e-06
2.55181e-09
4.51955e-06
-4.69948e-09
4.51963e-06
1.82082e-08
4.51778e-06
-4.09616e-08
4.5228e-06
8.84339e-08
4.51122e-06
-1.40517e-07
4.52783e-06
1.65079e-07
4.51272e-06
-1.11869e-07
4.51445e-06
-3.1069e-09
4.52326e-06
8.04591e-08
4.51974e-06
-2.64152e-08
4.50936e-06
-5.32438e-08
4.5132e-06
2.54872e-08
4.52046e-06
3.95164e-08
4.52096e-06
2.84116e-09
4.51304e-06
-2.53724e-08
4.50825e-06
-1.68825e-08
4.50863e-06
5.76849e-09
4.51323e-06
2.10769e-08
4.51632e-06
1.85873e-08
4.51681e-06
6.78872e-09
4.51357e-06
-4.37059e-09
4.50934e-06
-8.3008e-09
4.50515e-06
-6.41059e-09
4.50315e-06
-5.49159e-10
4.50261e-06
5.52397e-09
4.50306e-06
9.49909e-09
4.50363e-06
1.12418e-08
4.50474e-06
1.27129e-08
4.50504e-06
1.23154e-08
4.50446e-06
1.03508e-08
4.50323e-06
9.11519e-09
4.50142e-06
8.21577e-09
4.49956e-06
8.22866e-09
4.49813e-06
9.07991e-09
4.49689e-06
9.44513e-09
1.04273e-08
4.49639e-06
4.88092e-06
1.34244e-10
4.88084e-06
5.32765e-10
4.88075e-06
2.11363e-10
4.88056e-06
2.73457e-09
4.88033e-06
-4.46347e-09
4.88063e-06
1.79009e-08
4.87824e-06
-3.85685e-08
4.88407e-06
8.26034e-08
4.87148e-06
-1.27925e-07
4.88843e-06
1.48132e-07
4.8734e-06
-9.68444e-08
4.87497e-06
-4.67378e-09
4.88326e-06
7.2164e-08
4.87988e-06
-2.30273e-08
4.87084e-06
-4.42129e-08
4.87379e-06
2.25462e-08
4.88014e-06
3.31633e-08
4.88036e-06
2.62054e-09
4.87386e-06
-1.88712e-08
4.86955e-06
-1.25704e-08
4.86986e-06
5.45102e-09
4.87321e-06
1.77303e-08
4.87562e-06
1.61744e-08
4.87571e-06
6.70377e-09
4.87321e-06
-1.86849e-09
4.86963e-06
-4.72388e-09
4.86621e-06
-2.98966e-09
4.86419e-06
1.4737e-09
4.86353e-06
6.17698e-09
4.86346e-06
9.56689e-09
4.86348e-06
1.12279e-08
4.86393e-06
1.22635e-08
4.86416e-06
1.20823e-08
4.86368e-06
1.08369e-08
4.86273e-06
1.00628e-08
4.86143e-06
9.51129e-09
4.86027e-06
9.39067e-09
4.85951e-06
9.8437e-09
4.85901e-06
9.94092e-09
1.04571e-08
4.85898e-06
5.27062e-06
1.64778e-10
5.27053e-06
6.19389e-10
5.27042e-06
3.16778e-10
5.27025e-06
2.91316e-09
5.26994e-06
-4.16146e-09
5.27037e-06
1.74743e-08
5.26766e-06
-3.58572e-08
5.27395e-06
7.63076e-08
5.26072e-06
-1.14694e-07
5.27809e-06
1.30764e-07
5.26286e-06
-8.16096e-08
5.26453e-06
-6.34947e-09
5.27253e-06
6.41641e-08
5.26913e-06
-1.96231e-08
5.26055e-06
-3.56355e-08
5.2632e-06
1.98986e-08
5.26923e-06
2.71336e-08
5.26935e-06
2.49473e-09
5.26318e-06
-1.26935e-08
5.259e-06
-8.38904e-09
5.2593e-06
5.15085e-09
5.26231e-06
1.47172e-08
5.26448e-06
1.40047e-08
5.26439e-06
6.79463e-09
5.26198e-06
5.41818e-10
5.25855e-06
-1.29398e-09
5.25534e-06
2.14822e-10
5.25335e-06
3.47084e-09
5.25258e-06
6.94123e-09
5.25256e-06
9.59239e-09
5.25267e-06
1.11146e-08
5.2529e-06
1.20301e-08
5.25296e-06
1.20278e-08
5.2525e-06
1.12967e-08
5.25168e-06
1.08838e-08
5.25065e-06
1.05368e-08
5.24963e-06
1.04122e-08
5.2489e-06
1.05749e-08
5.24837e-06
1.0468e-08
1.06449e-08
5.24818e-06
5.69143e-06
1.97997e-10
5.69134e-06
7.09843e-10
5.69121e-06
4.39793e-10
5.69105e-06
3.07495e-09
5.69065e-06
-3.75875e-09
5.69125e-06
1.68688e-08
5.68817e-06
-3.27744e-08
5.69483e-06
6.96512e-08
5.68149e-06
-1.01361e-07
5.69823e-06
1.14024e-07
5.6839e-06
-6.72714e-08
5.68555e-06
-8.00848e-09
5.69232e-06
5.73977e-08
5.68908e-06
-1.6381e-08
5.68232e-06
-2.88753e-08
5.68406e-06
1.81608e-08
5.68871e-06
2.24814e-08
5.68866e-06
2.54522e-09
5.68385e-06
-7.88229e-09
5.68043e-06
-4.96993e-09
5.68052e-06
5.05645e-09
5.68238e-06
1.28619e-08
5.68367e-06
1.271e-08
5.68333e-06
7.13899e-09
5.68144e-06
2.42577e-09
5.67878e-06
1.36908e-09
5.67623e-06
2.76776e-09
5.67448e-06
5.22325e-09
5.67356e-06
7.85903e-09
5.67311e-06
1.00412e-08
5.67274e-06
1.1488e-08
5.67254e-06
1.22236e-08
5.67237e-06
1.22002e-08
5.6719e-06
1.17634e-08
5.6713e-06
1.1486e-08
5.67061e-06
1.1228e-08
5.66998e-06
1.10392e-08
5.6696e-06
1.09548e-08
5.66935e-06
1.07157e-08
1.06027e-08
5.6694e-06
6.14583e-06
2.34026e-10
6.14574e-06
8.05106e-10
6.1456e-06
5.78669e-10
6.14545e-06
3.22996e-09
6.14497e-06
-3.28133e-09
6.14569e-06
1.61473e-08
6.14232e-06
-2.94098e-08
6.1493e-06
6.2675e-08
6.13565e-06
-8.77112e-08
6.15236e-06
9.7315e-08
6.13823e-06
-5.31432e-08
6.13984e-06
-9.61855e-09
6.14628e-06
5.09559e-08
6.14292e-06
-1.3021e-08
6.13682e-06
-2.27722e-08
6.13822e-06
1.67649e-08
6.14239e-06
1.83117e-08
6.14235e-06
2.57733e-09
6.13788e-06
-3.40551e-09
6.13455e-06
-1.63936e-09
6.13456e-06
5.04152e-09
6.13619e-06
1.12316e-08
6.1372e-06
1.16987e-08
6.13679e-06
7.55228e-09
6.13495e-06
4.26376e-09
6.13246e-06
3.86667e-09
6.13004e-06
5.18443e-09
6.12837e-06
6.89011e-09
6.12743e-06
8.7958e-09
6.12703e-06
1.0447e-08
6.12677e-06
1.17467e-08
6.12656e-06
1.24357e-08
6.1263e-06
1.24617e-08
6.12586e-06
1.21966e-08
6.12522e-06
1.21292e-08
6.12454e-06
1.1908e-08
6.1239e-06
1.16817e-08
6.12344e-06
1.14088e-08
6.12318e-06
1.09783e-08
1.06231e-08
6.12316e-06
6.63652e-06
2.7323e-10
6.63642e-06
9.04611e-10
6.63626e-06
7.37421e-10
6.63612e-06
3.36943e-09
6.63555e-06
-2.70626e-09
6.63642e-06
1.52807e-08
6.63277e-06
-2.57678e-08
6.63989e-06
5.55552e-08
6.62647e-06
-7.42896e-08
6.64219e-06
8.15938e-08
6.62922e-06
-4.01728e-08
6.63059e-06
-1.09855e-08
6.63619e-06
4.53518e-08
6.63267e-06
-9.49448e-09
6.6282e-06
-1.83086e-08
6.62904e-06
1.59276e-08
6.63176e-06
1.55957e-08
6.63171e-06
2.62359e-09
6.62832e-06
-1.87123e-11
6.62554e-06
1.14497e-09
6.62539e-06
5.19229e-09
6.62625e-06
1.03678e-08
6.62648e-06
1.14699e-08
6.62589e-06
8.14676e-09
6.62444e-06
5.70682e-09
6.62256e-06
5.74936e-09
6.62059e-06
7.15774e-09
6.61919e-06
8.28924e-09
6.61824e-06
9.74581e-09
6.61769e-06
1.09978e-08
6.61711e-06
1.23202e-08
6.61661e-06
1.2936e-08
6.6161e-06
1.29719e-08
6.61561e-06
1.26936e-08
6.61508e-06
1.26557e-08
6.61453e-06
1.24564e-08
6.61402e-06
1.21906e-08
6.61365e-06
1.17865e-08
6.6134e-06
1.12248e-08
1.07605e-08
6.61326e-06
7.16639e-06
3.1573e-10
7.16628e-06
1.00925e-09
7.16611e-06
9.14519e-10
7.16597e-06
3.50237e-09
7.16532e-06
-2.05705e-09
7.16628e-06
1.43282e-08
7.16245e-06
-2.19385e-08
7.16964e-06
4.83577e-08
7.15633e-06
-6.09789e-08
7.17147e-06
6.646e-08
7.15922e-06
-2.79219e-08
7.16019e-06
-1.19613e-08
7.16572e-06
3.98248e-08
7.16194e-06
-5.71295e-09
7.15806e-06
-1.44263e-08
7.15878e-06
1.51991e-08
7.16081e-06
1.35727e-08
7.16082e-06
2.60654e-09
7.15788e-06
2.92844e-09
7.15505e-06
3.97324e-09
7.15471e-06
5.52712e-09
7.15551e-06
9.5705e-09
7.15562e-06
1.13584e-08
7.15483e-06
8.94402e-09
7.1535e-06
7.03354e-09
7.15179e-06
7.45438e-09
7.14997e-06
8.97986e-09
7.14858e-06
9.67677e-09
7.1477e-06
1.06299e-08
7.14724e-06
1.14567e-08
7.14693e-06
1.26275e-08
7.14657e-06
1.32956e-08
7.14604e-06
1.35017e-08
7.14541e-06
1.33301e-08
7.14467e-06
1.33897e-08
7.14376e-06
1.33747e-08
7.14284e-06
1.31065e-08
7.14202e-06
1.26069e-08
7.1418e-06
1.14418e-08
1.02727e-08
7.14229e-06
7.73856e-06
3.61834e-10
7.73845e-06
1.11885e-09
7.73825e-06
1.11264e-09
7.73813e-06
3.62583e-09
7.7374e-06
-1.32751e-09
7.73842e-06
1.33013e-08
7.73449e-06
-1.80013e-08
7.74149e-06
4.13539e-08
7.72889e-06
-4.83736e-08
7.74253e-06
5.28121e-08
7.73184e-06
-1.72264e-08
7.73215e-06
-1.22783e-08
7.73737e-06
3.46101e-08
7.73332e-06
-1.66508e-09
7.73045e-06
-1.15567e-08
7.73122e-06
1.4429e-08
7.73186e-06
1.29307e-08
7.73168e-06
2.7887e-09
7.72978e-06
4.8295e-09
7.72733e-06
6.42095e-09
7.72665e-06
6.21117e-09
7.72707e-06
9.14498e-09
7.72683e-06
1.16004e-08
7.72573e-06
1.00463e-08
7.72458e-06
8.17879e-09
7.7234e-06
8.64166e-09
7.72204e-06
1.03371e-08
7.72075e-06
1.09708e-08
7.71991e-06
1.14615e-08
7.71933e-06
1.20381e-08
7.71895e-06
1.30126e-08
7.71863e-06
1.36174e-08
7.71849e-06
1.36378e-08
7.71857e-06
1.32473e-08
7.71897e-06
1.29902e-08
7.71952e-06
1.28263e-08
7.72011e-06
1.25129e-08
7.72064e-06
1.20844e-08
7.72054e-06
1.15386e-08
1.06582e-08
7.72015e-06
8.35641e-06
4.11695e-10
8.3563e-06
1.23431e-09
8.35608e-06
1.33026e-09
8.35596e-06
3.74831e-09
8.35517e-06
-5.39857e-10
8.35621e-06
1.22572e-08
8.35226e-06
-1.40528e-08
8.35897e-06
3.46471e-08
8.34707e-06
-3.64738e-08
8.35942e-06
4.04627e-08
8.35008e-06
-7.88258e-09
8.34952e-06
-1.17228e-08
8.35488e-06
2.92457e-08
8.35079e-06
2.43324e-09
8.348e-06
-8.77004e-09
8.34901e-06
1.34199e-08
8.34908e-06
1.28588e-08
8.3486e-06
3.2689e-09
8.34727e-06
6.16221e-09
8.34495e-06
8.73972e-09
8.34385e-06
7.30904e-09
8.3442e-06
8.79343e-09
8.34412e-06
1.16839e-08
8.34297e-06
1.11992e-08
8.34166e-06
9.48749e-09
8.34066e-06
9.636e-09
8.33958e-06
1.142e-08
8.33839e-06
1.21583e-08
8.33762e-06
1.22351e-08
8.33722e-06
1.24355e-08
8.33718e-06
1.30581e-08
8.33708e-06
1.37179e-08
8.33673e-06
1.39832e-08
8.33635e-06
1.36236e-08
8.33606e-06
1.32796e-08
8.33592e-06
1.29746e-08
8.33581e-06
1.26235e-08
8.33589e-06
1.2e-08
8.33639e-06
1.10413e-08
9.84723e-09
8.3372e-06
9.02359e-06
4.6555e-10
9.02347e-06
1.3559e-09
9.02323e-06
1.56832e-09
9.02311e-06
3.87269e-09
9.02227e-06
2.9651e-10
9.02329e-06
1.12407e-08
9.01946e-06
-1.02227e-08
9.02556e-06
2.85507e-08
9.01493e-06
-2.58482e-08
9.02521e-06
3.0179e-08
9.01789e-06
-5.57152e-10
9.01624e-06
-1.00726e-08
9.0214e-06
2.40853e-08
9.01761e-06
6.2172e-09
9.01488e-06
-6.03992e-09
9.01623e-06
1.20753e-08
9.01565e-06
1.3434e-08
9.01449e-06
4.42812e-09
9.01388e-06
6.77485e-09
9.01225e-06
1.0373e-08
9.01077e-06
8.78704e-09
9.01063e-06
8.93924e-09
9.01054e-06
1.17689e-08
9.00945e-06
1.22895e-08
9.0081e-06
1.08387e-08
9.00722e-06
1.0512e-08
9.00662e-06
1.20233e-08
9.00576e-06
1.30185e-08
9.00499e-06
1.30072e-08
9.0045e-06
1.29227e-08
9.00439e-06
1.31656e-08
9.00454e-06
1.35742e-08
9.00486e-06
1.36598e-08
9.00524e-06
1.32413e-08
9.00583e-06
1.26873e-08
9.00663e-06
1.21835e-08
9.00742e-06
1.18239e-08
9.00807e-06
1.13585e-08
9.00816e-06
1.09468e-08
1.01771e-08
9.00783e-06
9.74404e-06
5.23528e-10
9.74392e-06
1.48455e-09
9.74366e-06
1.82513e-09
9.74352e-06
4.00782e-09
9.74266e-06
1.15973e-09
9.7436e-06
1.03044e-08
9.73998e-06
-6.60096e-09
9.74536e-06
2.31701e-08
9.73605e-06
-1.65426e-08
9.74438e-06
2.18527e-08
9.73889e-06
4.93103e-09
9.73616e-06
-7.34681e-09
9.74108e-06
1.91702e-08
9.738e-06
9.29112e-09
9.73484e-06
-2.87605e-09
9.73623e-06
1.06878e-08
9.73578e-06
1.38783e-08
9.73414e-06
6.0721e-09
9.73365e-06
7.26357e-09
9.73254e-06
1.14837e-08
9.73087e-06
1.04598e-08
9.73028e-06
9.52662e-09
9.73034e-06
1.17113e-08
9.72958e-06
1.30504e-08
9.72823e-06
1.21882e-08
9.72721e-06
1.15316e-08
9.72679e-06
1.244e-08
9.72624e-06
1.35664e-08
9.72564e-06
1.36117e-08
9.72526e-06
1.33002e-08
9.72528e-06
1.31459e-08
9.72555e-06
1.33008e-08
9.72583e-06
1.33784e-08
9.72601e-06
1.30641e-08
9.72619e-06
1.25095e-08
9.72648e-06
1.18889e-08
9.7269e-06
1.14062e-08
9.72733e-06
1.09265e-08
9.72784e-06
1.04362e-08
9.74369e-09
9.72828e-06
1.0522e-05
5.85769e-10
1.05219e-05
1.62097e-09
1.05216e-05
2.10005e-09
1.05215e-05
4.15958e-09
1.05206e-05
2.03389e-09
1.05214e-05
9.5017e-09
1.05181e-05
-3.30897e-09
1.05225e-05
1.87413e-08
1.05149e-05
-8.91003e-09
1.05209e-05
1.58672e-08
1.05174e-05
8.39509e-09
1.05139e-05
-3.86941e-09
1.05179e-05
1.51523e-08
1.05159e-05
1.13659e-08
1.05125e-05
4.8182e-10
1.05136e-05
9.56228e-09
1.05135e-05
1.40654e-08
1.05114e-05
8.10316e-09
1.05108e-05
7.92174e-09
1.05103e-05
1.19397e-08
1.05088e-05
1.1949e-08
1.05077e-05
1.06228e-08
1.05076e-05
1.18788e-08
1.05071e-05
1.35128e-08
1.0506e-05
1.32911e-08
1.0505e-05
1.25407e-08
1.05046e-05
1.28371e-08
1.05044e-05
1.37537e-08
1.0504e-05
1.39662e-08
1.05037e-05
1.36219e-08
1.05036e-05
1.32458e-08
1.05038e-05
1.31273e-08
1.05041e-05
1.30731e-08
1.05044e-05
1.2765e-08
1.05047e-05
1.22273e-08
1.0505e-05
1.15973e-08
1.05053e-05
1.10572e-08
1.05057e-05
1.05735e-08
1.0506e-05
1.01237e-08
9.6701e-09
1.05061e-05
1.13621e-05
6.52336e-10
1.1362e-05
1.76614e-09
1.13617e-05
2.3912e-09
1.13615e-05
4.33688e-09
1.13606e-05
2.89937e-09
1.13613e-05
8.86903e-09
1.13583e-05
-3.91849e-10
1.13618e-05
1.52767e-08
1.13557e-05
-2.84758e-09
1.13597e-05
1.19115e-08
1.13578e-05
1.03043e-08
1.1354e-05
-9.90234e-11
1.1357e-05
1.22189e-08
1.13559e-05
1.24288e-08
1.13525e-05
3.91324e-09
1.1353e-05
9.0525e-09
1.13532e-05
1.3846e-08
1.13512e-05
1.0071e-08
1.13502e-05
8.9709e-09
1.13499e-05
1.21991e-08
1.13488e-05
1.3083e-08
1.13475e-05
1.19068e-08
1.13471e-05
1.23012e-08
1.13468e-05
1.37396e-08
1.13461e-05
1.40414e-08
1.13452e-05
1.34815e-08
1.13447e-05
1.33225e-08
1.13446e-05
1.38382e-08
1.13445e-05
1.40914e-08
1.13443e-05
1.38055e-08
1.13442e-05
1.333e-08
1.13443e-05
1.29691e-08
1.13447e-05
1.27532e-08
1.1345e-05
1.24487e-08
1.13452e-05
1.19815e-08
1.13454e-05
1.14035e-08
1.13456e-05
1.08565e-08
1.13458e-05
1.03693e-08
1.1346e-05
9.90382e-09
9.44316e-09
1.13463e-05
1.22693e-05
7.23259e-10
1.22691e-05
1.92092e-09
1.22688e-05
2.6971e-09
1.22686e-05
4.54583e-09
1.22678e-05
3.74302e-09
1.22682e-05
8.43937e-09
1.22657e-05
2.09931e-09
1.22681e-05
1.28251e-08
1.22636e-05
1.65972e-09
1.22657e-05
9.81208e-09
1.22649e-05
1.10924e-08
1.22615e-05
3.37535e-09
1.22631e-05
1.06148e-08
1.22627e-05
1.27947e-08
1.22597e-05
6.90977e-09
1.22595e-05
9.26312e-09
1.22598e-05
1.35255e-08
1.22582e-05
1.17202e-08
1.22568e-05
1.03402e-08
1.22565e-05
1.24746e-08
1.22558e-05
1.37769e-08
1.22546e-05
1.31188e-08
1.22539e-05
1.30052e-08
1.22537e-05
1.39692e-08
1.22533e-05
1.44815e-08
1.22526e-05
1.41656e-08
1.22521e-05
1.38062e-08
1.2252e-05
1.39231e-08
1.2252e-05
1.40496e-08
1.2252e-05
1.38284e-08
1.2252e-05
1.33543e-08
1.22521e-05
1.28833e-08
1.22523e-05
1.25088e-08
1.22526e-05
1.2165e-08
1.22529e-05
1.1719e-08
1.22531e-05
1.11833e-08
1.22533e-05
1.06362e-08
1.22536e-05
1.01272e-08
1.22538e-05
9.64517e-09
9.19531e-09
1.22541e-05
1.32489e-05
7.98507e-10
1.32487e-05
2.08616e-09
1.32484e-05
3.016e-09
1.32481e-05
4.79225e-09
1.32473e-05
4.55459e-09
1.32475e-05
8.22015e-09
1.32454e-05
4.18935e-09
1.3247e-05
1.12556e-08
1.32437e-05
4.93901e-09
1.32445e-05
9.026e-09
1.32443e-05
1.13274e-08
1.32413e-05
6.32549e-09
1.32418e-05
1.01047e-08
1.32419e-05
1.27831e-08
1.32394e-05
9.35607e-09
1.32386e-05
1.00836e-08
1.32388e-05
1.33111e-08
1.32376e-05
1.29164e-08
1.32362e-05
1.17784e-08
1.32357e-05
1.2965e-08
1.32352e-05
1.42342e-08
1.32343e-05
1.40714e-08
1.32335e-05
1.37903e-08
1.32332e-05
1.42678e-08
1.3233e-05
1.471e-08
1.32325e-05
1.45866e-08
1.32321e-05
1.42092e-08
1.3232e-05
1.40373e-08
1.32321e-05
1.39684e-08
1.32322e-05
1.37386e-08
1.32323e-05
1.32879e-08
1.32324e-05
1.27823e-08
1.32326e-05
1.23002e-08
1.32328e-05
1.18825e-08
1.32331e-05
1.1422e-08
1.32334e-05
1.09146e-08
1.32337e-05
1.03767e-08
1.32339e-05
9.86515e-09
1.32342e-05
9.38227e-09
8.90198e-09
1.32345e-05
1.43067e-05
8.77998e-10
1.43065e-05
2.2625e-09
1.43061e-05
3.34641e-09
1.43059e-05
5.07942e-09
1.43051e-05
5.32984e-09
1.43051e-05
8.2088e-09
1.43034e-05
5.91167e-09
1.43042e-05
1.04532e-08
1.43019e-05
7.24255e-09
1.43018e-05
9.14516e-09
1.43017e-05
1.1426e-08
1.42994e-05
8.61621e-09
1.42991e-05
1.03915e-08
1.42991e-05
1.27863e-08
1.42973e-05
1.11803e-08
1.42961e-05
1.12055e-08
1.42961e-05
1.33899e-08
1.42952e-05
1.37592e-08
1.42939e-05
1.30759e-08
1.42932e-05
1.36303e-08
1.42929e-05
1.4599e-08
1.42922e-05
1.47406e-08
1.42915e-05
1.44979e-08
1.42911e-05
1.46274e-08
1.4291e-05
1.48664e-08
1.42908e-05
1.48014e-08
1.42905e-05
1.44491e-08
1.42904e-05
1.41304e-08
1.42905e-05
1.3873e-08
1.42907e-05
1.35792e-08
1.42908e-05
1.31336e-08
1.4291e-05
1.26241e-08
1.42912e-05
1.20937e-08
1.42915e-05
1.16042e-08
1.42918e-05
1.11115e-08
1.42921e-05
1.06113e-08
1.42924e-05
1.00882e-08
1.42927e-05
9.58255e-09
1.4293e-05
9.09313e-09
8.6197e-09
1.42932e-05
1.54489e-05
9.61584e-10
1.54487e-05
2.45032e-09
1.54484e-05
3.68702e-09
1.54481e-05
5.40844e-09
1.54473e-05
6.0693e-09
1.54471e-05
8.38589e-09
1.54457e-05
7.33533e-09
1.54459e-05
1.02309e-08
1.54443e-05
8.90029e-09
1.54437e-05
9.76335e-09
1.54435e-05
1.16255e-08
1.54417e-05
1.03476e-08
1.5441e-05
1.11392e-08
1.54408e-05
1.29636e-08
1.54395e-05
1.25072e-08
1.54383e-05
1.24045e-08
1.54379e-05
1.37567e-08
1.54373e-05
1.43835e-08
1.54362e-05
1.41275e-08
1.54355e-05
1.43534e-08
1.54351e-05
1.49757e-08
1.54347e-05
1.52014e-08
1.54341e-05
1.50356e-08
1.54338e-05
1.49663e-08
1.54337e-05
1.49882e-08
1.54336e-05
1.48706e-08
1.54335e-05
1.4537e-08
1.54335e-05
1.41515e-08
1.54336e-05
1.37676e-08
1.54338e-05
1.33852e-08
1.5434e-05
1.29167e-08
1.54342e-05
1.24001e-08
1.54345e-05
1.18483e-08
1.54348e-05
1.13192e-08
1.54351e-05
1.07935e-08
1.54354e-05
1.02849e-08
1.54357e-05
9.76966e-09
1.5436e-05
9.27273e-09
1.54363e-05
8.78998e-09
8.32498e-09
1.54366e-05
1.66824e-05
1.04905e-09
1.66822e-05
2.64962e-09
1.66818e-05
4.03671e-09
1.66815e-05
5.77789e-09
1.66807e-05
6.77723e-09
1.66804e-05
8.72396e-09
1.66792e-05
8.52915e-09
1.6679e-05
1.04312e-08
1.66778e-05
1.01483e-08
1.66769e-05
1.06222e-08
1.66765e-05
1.20129e-08
1.66752e-05
1.1667e-08
1.66743e-05
1.20797e-08
1.66739e-05
1.33644e-08
1.66729e-05
1.35075e-08
1.66718e-05
1.35084e-08
1.66712e-05
1.43127e-08
1.66707e-05
1.49166e-08
1.66699e-05
1.4936e-08
1.66692e-05
1.50272e-08
1.66688e-05
1.53566e-08
1.66685e-05
1.55204e-08
1.66681e-05
1.53941e-08
1.66679e-05
1.52206e-08
1.66678e-05
1.50675e-08
1.66678e-05
1.48581e-08
1.66678e-05
1.45045e-08
1.66679e-05
1.4079e-08
1.66681e-05
1.36186e-08
1.66683e-05
1.31582e-08
1.66685e-05
1.26522e-08
1.66688e-05
1.21216e-08
1.66691e-05
1.15597e-08
1.66694e-05
1.10114e-08
1.66698e-05
1.04661e-08
1.66701e-05
9.94503e-09
1.66704e-05
9.43006e-09
1.66708e-05
8.93952e-09
1.66711e-05
8.46588e-09
8.01229e-09
1.66714e-05
1.80143e-05
1.14007e-09
1.80141e-05
2.85989e-09
1.80137e-05
4.39439e-09
1.80133e-05
6.18412e-09
1.80127e-05
7.45985e-09
1.80122e-05
9.1901e-09
1.80112e-05
9.56095e-09
1.80107e-05
1.09093e-08
1.80097e-05
1.11692e-08
1.80087e-05
1.15604e-08
1.80082e-05
1.25752e-08
1.80071e-05
1.2724e-08
1.80061e-05
1.30516e-08
1.80056e-05
1.39347e-08
1.80047e-05
1.43157e-08
1.80038e-05
1.44557e-08
1.80032e-05
1.4943e-08
1.80027e-05
1.54123e-08
1.80021e-05
1.55398e-08
1.80015e-05
1.558e-08
1.80012e-05
1.57e-08
1.80009e-05
1.57455e-08
1.80007e-05
1.55993e-08
1.80006e-05
1.53574e-08
1.80006e-05
1.50876e-08
1.80007e-05
1.4778e-08
1.80008e-05
1.43777e-08
1.8001e-05
1.39156e-08
1.80012e-05
1.34085e-08
1.80014e-05
1.2894e-08
1.80017e-05
1.23523e-08
1.80021e-05
1.18022e-08
1.80024e-05
1.12319e-08
1.80027e-05
1.06733e-08
1.80031e-05
1.01184e-08
1.80034e-05
9.58946e-09
1.80038e-05
9.07401e-09
1.80041e-05
8.58833e-09
1.80045e-05
8.12402e-09
7.68322e-09
1.80048e-05
1.94526e-05
1.23422e-09
1.94524e-05
3.08009e-09
1.9452e-05
4.7588e-09
1.94516e-05
6.6215e-09
1.94509e-05
8.12331e-09
1.94503e-05
9.751e-09
1.94494e-05
1.04845e-08
1.94488e-05
1.1556e-08
1.94479e-05
1.20728e-08
1.94469e-05
1.24951e-08
1.94463e-05
1.32583e-08
1.94453e-05
1.36276e-08
1.94444e-05
1.39687e-08
1.94438e-05
1.4592e-08
1.94431e-05
1.50164e-08
1.94423e-05
1.52366e-08
1.94417e-05
1.55515e-08
1.94412e-05
1.58673e-08
1.94408e-05
1.59889e-08
1.94404e-05
1.59876e-08
1.94401e-05
1.59647e-08
1.944e-05
1.58853e-08
1.94399e-05
1.56758e-08
1.94399e-05
1.53789e-08
1.94399e-05
1.50247e-08
1.94401e-05
1.46307e-08
1.94403e-05
1.4176e-08
1.94405e-05
1.36761e-08
1.94408e-05
1.31356e-08
1.94411e-05
1.25846e-08
1.94414e-05
1.20157e-08
1.94418e-05
1.14475e-08
1.94422e-05
1.08703e-08
1.94425e-05
1.03067e-08
1.94429e-05
9.74991e-09
1.94433e-05
9.21917e-09
1.94436e-05
8.70593e-09
1.9444e-05
8.22501e-09
1.94443e-05
7.76931e-09
7.34038e-09
1.94447e-05
2.10057e-05
1.33088e-09
2.10055e-05
3.30852e-09
2.10051e-05
5.12811e-09
2.10046e-05
7.08276e-09
2.1004e-05
8.77197e-09
2.10034e-05
1.03752e-08
2.10025e-05
1.13379e-08
2.10018e-05
1.22909e-08
2.10009e-05
1.29173e-08
2.1e-05
1.33879e-08
2.09993e-05
1.4e-08
2.09985e-05
1.44373e-08
2.09977e-05
1.47952e-08
2.0997e-05
1.52599e-08
2.09964e-05
1.56379e-08
2.09957e-05
1.58686e-08
2.09952e-05
1.60765e-08
2.09948e-05
1.62557e-08
2.09945e-05
1.63116e-08
2.09942e-05
1.62516e-08
2.09941e-05
1.61233e-08
2.0994e-05
1.59286e-08
2.09941e-05
1.56494e-08
2.09942e-05
1.52913e-08
2.09943e-05
1.48719e-08
2.09945e-05
1.44118e-08
2.09948e-05
1.39069e-08
2.09951e-05
1.33704e-08
2.09954e-05
1.28037e-08
2.09958e-05
1.22282e-08
2.09962e-05
1.16421e-08
2.09966e-05
1.10617e-08
2.09969e-05
1.04809e-08
2.09973e-05
9.91625e-09
2.09977e-05
9.36235e-09
2.09981e-05
8.83448e-09
2.09985e-05
8.32676e-09
2.09989e-05
7.85203e-09
2.09992e-05
7.40508e-09
6.98689e-09
2.09996e-05
2.26828e-05
1.42921e-09
2.26826e-05
3.54276e-09
2.26822e-05
5.49963e-09
2.26817e-05
7.55927e-09
2.26811e-05
9.40701e-09
2.26804e-05
1.10344e-08
2.26796e-05
1.2143e-08
2.26789e-05
1.30575e-08
2.26781e-05
1.37229e-08
2.26772e-05
1.42237e-08
2.26765e-05
1.47441e-08
2.26758e-05
1.51732e-08
2.2675e-05
1.55212e-08
2.26744e-05
1.5879e-08
2.26739e-05
1.61772e-08
2.26734e-05
1.63665e-08
2.2673e-05
1.64869e-08
2.26727e-05
1.65494e-08
2.26725e-05
1.6516e-08
2.26723e-05
1.6381e-08
2.26723e-05
1.61602e-08
2.26723e-05
1.58774e-08
2.26725e-05
1.55233e-08
2.26727e-05
1.51044e-08
2.26729e-05
1.46305e-08
2.26732e-05
1.4119e-08
2.26735e-05
1.35733e-08
2.26739e-05
1.3006e-08
2.26743e-05
1.2419e-08
2.26747e-05
1.18278e-08
2.26751e-05
1.12325e-08
2.26755e-05
1.06464e-08
2.26759e-05
1.00665e-08
2.26763e-05
9.50496e-09
2.26767e-05
8.95797e-09
2.26771e-05
8.43708e-09
2.26775e-05
7.93823e-09
2.26779e-05
7.47183e-09
2.26783e-05
7.03437e-09
6.62595e-09
2.26786e-05
2.44938e-05
1.52808e-09
2.44936e-05
3.77959e-09
2.44932e-05
5.86946e-09
2.44928e-05
8.04112e-09
2.44921e-05
1.00256e-08
2.44915e-05
1.17033e-08
2.44907e-05
1.29069e-08
2.44899e-05
1.38163e-08
2.44892e-05
1.44872e-08
2.44884e-05
1.49919e-08
2.44877e-05
1.54473e-08
2.44871e-05
1.5832e-08
2.44864e-05
1.61405e-08
2.44859e-05
1.64104e-08
2.44855e-05
1.66182e-08
2.44851e-05
1.67353e-08
2.44848e-05
1.6769e-08
2.44846e-05
1.67281e-08
2.44845e-05
1.66003e-08
2.44846e-05
1.63796e-08
2.44846e-05
1.60828e-08
2.44848e-05
1.57226e-08
2.4485e-05
1.53005e-08
2.44853e-05
1.48256e-08
2.44856e-05
1.43055e-08
2.4486e-05
1.37543e-08
2.44864e-05
1.31777e-08
2.44868e-05
1.25875e-08
2.44872e-05
1.19866e-08
2.44877e-05
1.13867e-08
2.44881e-05
1.07889e-08
2.44885e-05
1.02035e-08
2.4489e-05
9.62919e-09
2.44894e-05
9.07506e-09
2.44898e-05
8.53863e-09
2.44902e-05
8.0283e-09
2.44906e-05
7.54133e-09
2.4491e-05
7.08565e-09
2.44914e-05
6.65908e-09
6.26051e-09
2.44918e-05
2.64495e-05
1.62599e-09
2.64492e-05
4.01487e-09
2.64489e-05
6.23216e-09
2.64484e-05
8.51709e-09
2.64478e-05
1.06209e-08
2.64471e-05
1.23587e-08
2.64464e-05
1.3625e-08
2.64457e-05
1.45375e-08
2.6445e-05
1.51954e-08
2.64443e-05
1.56804e-08
2.64437e-05
1.60766e-08
2.64431e-05
1.63983e-08
2.64426e-05
1.66446e-08
2.64422e-05
1.68288e-08
2.64419e-05
1.69428e-08
2.64416e-05
1.69725e-08
2.64415e-05
1.69165e-08
2.64414e-05
1.67797e-08
2.64415e-05
1.65584e-08
2.64416e-05
1.62587e-08
2.64418e-05
1.58912e-08
2.6442e-05
1.54637e-08
2.64424e-05
1.49835e-08
2.64427e-05
1.44607e-08
2.64431e-05
1.39029e-08
2.64436e-05
1.33217e-08
2.6444e-05
1.27236e-08
2.64445e-05
1.21187e-08
2.6445e-05
1.15107e-08
2.64454e-05
1.09086e-08
2.64459e-05
1.03141e-08
2.64464e-05
9.73491e-09
2.64468e-05
9.17074e-09
2.64473e-05
8.62817e-09
2.64477e-05
8.10568e-09
2.64481e-05
7.60921e-09
2.64485e-05
7.1369e-09
2.64489e-05
6.69445e-09
2.64493e-05
6.28051e-09
5.89268e-09
2.64497e-05
2.85612e-05
1.721e-09
2.8561e-05
4.24344e-09
2.85606e-05
6.58054e-09
2.85602e-05
8.97448e-09
2.85596e-05
1.11815e-08
2.8559e-05
1.29782e-08
2.85583e-05
1.42848e-08
2.85577e-05
1.51954e-08
2.85571e-05
1.58271e-08
2.85565e-05
1.62731e-08
2.85559e-05
1.66056e-08
2.85555e-05
1.68531e-08
2.85551e-05
1.70216e-08
2.85548e-05
1.71167e-08
2.85546e-05
1.71355e-08
2.85545e-05
1.70724e-08
2.85545e-05
1.69255e-08
2.85546e-05
1.66972e-08
2.85548e-05
1.63917e-08
2.8555e-05
1.6021e-08
2.85553e-05
1.55882e-08
2.85557e-05
1.51036e-08
2.85561e-05
1.45757e-08
2.85565e-05
1.40146e-08
2.8557e-05
1.34281e-08
2.85575e-05
1.28262e-08
2.8558e-05
1.22152e-08
2.85585e-05
1.16035e-08
2.8559e-05
1.09951e-08
2.85595e-05
1.03969e-08
2.856e-05
9.81099e-09
2.85605e-05
9.24294e-09
2.8561e-05
8.69297e-09
2.85615e-05
8.16574e-09
2.85619e-05
7.66032e-09
2.85624e-05
7.18073e-09
2.85628e-05
6.72565e-09
2.85632e-05
6.29896e-09
2.85635e-05
5.89971e-09
5.52432e-09
2.85639e-05
3.08416e-05
1.81067e-09
3.08414e-05
4.45903e-09
3.0841e-05
6.90551e-09
3.08406e-05
9.39893e-09
3.08401e-05
1.16927e-08
3.08396e-05
1.35391e-08
3.0839e-05
1.48676e-08
3.08384e-05
1.57655e-08
3.08379e-05
1.63589e-08
3.08374e-05
1.67508e-08
3.0837e-05
1.70118e-08
3.08367e-05
1.71769e-08
3.08364e-05
1.72583e-08
3.08363e-05
1.7261e-08
3.08362e-05
1.71849e-08
3.08363e-05
1.7029e-08
3.08364e-05
1.67928e-08
3.08366e-05
1.648e-08
3.08369e-05
1.61036e-08
3.08373e-05
1.56672e-08
3.08377e-05
1.51784e-08
3.08381e-05
1.4647e-08
3.08386e-05
1.40819e-08
3.08391e-05
1.34926e-08
3.08397e-05
1.28868e-08
3.08402e-05
1.2273e-08
3.08408e-05
1.16571e-08
3.08414e-05
1.1046e-08
3.08419e-05
1.04436e-08
3.08424e-05
9.8552e-09
3.0843e-05
9.28268e-09
3.08435e-05
8.73022e-09
3.0844e-05
8.19815e-09
3.08445e-05
7.68966e-09
3.08449e-05
7.20413e-09
3.08454e-05
6.74412e-09
3.08458e-05
6.30862e-09
3.08462e-05
5.90007e-09
3.08466e-05
5.51772e-09
5.15697e-09
3.08469e-05
3.3304e-05
1.892e-09
3.33038e-05
4.65416e-09
3.33035e-05
7.19601e-09
3.33032e-05
9.77423e-09
3.33027e-05
1.2136e-08
3.33022e-05
1.40178e-08
3.33018e-05
1.53509e-08
3.33013e-05
1.62231e-08
3.33009e-05
1.67668e-08
3.33005e-05
1.70928e-08
3.33003e-05
1.72747e-08
3.33001e-05
1.73521e-08
3.33e-05
1.7342e-08
3.33e-05
1.72514e-08
3.33001e-05
1.70828e-08
3.33003e-05
1.68376e-08
3.33006e-05
1.65169e-08
3.3301e-05
1.61345e-08
3.33014e-05
1.56933e-08
3.33018e-05
1.52013e-08
3.33023e-05
1.46669e-08
3.33029e-05
1.40997e-08
3.33035e-05
1.35079e-08
3.33041e-05
1.29006e-08
3.33047e-05
1.22846e-08
3.33053e-05
1.16674e-08
3.33059e-05
1.10543e-08
3.33065e-05
1.04508e-08
3.3307e-05
9.86036e-09
3.33076e-05
9.28706e-09
3.33082e-05
8.73253e-09
3.33087e-05
8.19975e-09
3.33092e-05
7.68904e-09
3.33097e-05
7.20245e-09
3.33102e-05
6.73945e-09
3.33106e-05
6.30151e-09
3.3311e-05
5.88773e-09
3.33114e-05
5.49941e-09
3.33118e-05
5.13578e-09
4.79156e-09
3.33122e-05
3.59631e-05
1.96137e-09
3.59629e-05
4.82004e-09
3.59627e-05
7.43907e-09
3.59623e-05
1.00824e-08
3.5962e-05
1.24906e-08
3.59616e-05
1.43893e-08
3.59613e-05
1.571e-08
3.59609e-05
1.6543e-08
3.59607e-05
1.70266e-08
3.59605e-05
1.7278e-08
3.59604e-05
1.73756e-08
3.59604e-05
1.73629e-08
3.59605e-05
1.72611e-08
3.59606e-05
1.708e-08
3.59609e-05
1.68238e-08
3.59612e-05
1.64945e-08
3.59616e-05
1.61053e-08
3.59621e-05
1.56597e-08
3.59627e-05
1.51645e-08
3.59632e-05
1.46284e-08
3.59638e-05
1.40599e-08
3.59645e-05
1.34678e-08
3.59651e-05
1.286e-08
3.59658e-05
1.22444e-08
3.59664e-05
1.16273e-08
3.59671e-05
1.1015e-08
3.59677e-05
1.04119e-08
3.59683e-05
9.8226e-09
3.5969e-05
9.24978e-09
3.59695e-05
8.69654e-09
3.59701e-05
8.16416e-09
3.59707e-05
7.65461e-09
3.59712e-05
7.16809e-09
3.59717e-05
6.70581e-09
3.59722e-05
6.26731e-09
3.59726e-05
5.85335e-09
3.5973e-05
5.46319e-09
3.59734e-05
5.09745e-09
3.59738e-05
4.75546e-09
4.43141e-09
3.59742e-05
3.88344e-05
2.01478e-09
3.88343e-05
4.94685e-09
3.88341e-05
7.62006e-09
3.88339e-05
1.03037e-08
3.88336e-05
1.27332e-08
3.88334e-05
1.46276e-08
3.88332e-05
1.59183e-08
3.8833e-05
1.66995e-08
3.88329e-05
1.71145e-08
3.88329e-05
1.72863e-08
3.8833e-05
1.72974e-08
3.88332e-05
1.71957e-08
3.88334e-05
1.70059e-08
3.88338e-05
1.67405e-08
3.88342e-05
1.64047e-08
3.88347e-05
1.60073e-08
3.88352e-05
1.55573e-08
3.88358e-05