/*--------------------------------*- C++ -*----------------------------------*\
| =========                 |                                                 |
| \\      /  F ield         | OpenFOAM: The Open Source CFD Toolbox           |
|  \\    /   O peration     | Version:  2312                                  |
|   \\  /    A nd           | Website:  www.openfoam.com                      |
|    \\/     M anipulation  |                                                 |
\*---------------------------------------------------------------------------*/
FoamFile
{
    version     2.0;
    format      ascii;
    arch        "LSB;label=32;scalar=64";
    class       volVectorField;
    location    "0.05";
    object      U;
}
// * * * * * * * * * * * * * * * * * * * * * * * * * * * * * * * * * * * * * //

dimensions      [0 1 -1 0 0 0 0];

internalField   nonuniform List<vector> 
5600
(
(0.999998 4.74704e-07 0)
(0.999994 3.20386e-06 0)
(0.999945 -8.63647e-07 0)
(1.00002 3.00592e-05 0)
(0.999659 -7.81268e-05 0)
(1.00056 0.000310967 0)
(0.998041 -0.00082635 0)
(1.00369 0.00197653 0)
(0.992337 -0.00356049 0)
(1.01153 0.00468658 0)
(0.983955 -0.00362245 0)
(1.01731 4.34899e-06 0)
(0.982857 0.00287817 0)
(1.01398 -0.00101559 0)
(0.986482 -0.00269685 0)
(1.01121 0.00126548 0)
(0.987806 0.00221533 0)
(1.01007 0.000219262 0)
(0.98822 -0.00207449 0)
(1.00854 -0.00140702 0)
(0.989891 0.000311183 0)
(1.00679 0.00187278 0)
(0.990149 0.00161462 0)
(1.00582 0.000563634 0)
(0.991376 -0.000897325 0)
(1.00426 -0.00145499 0)
(0.991284 -0.00141738 0)
(1.00309 -0.000495125 0)
(0.991994 0.000370902 0)
(1.00192 0.00107623 0)
(0.991773 0.00145577 0)
(1.00059 0.00194137 0)
(0.992118 0.00165914 0)
(0.99976 0.00120964 0)
(0.991856 0.000797818 0)
(0.998264 0.000564104 0)
(0.99148 0.000661334 0)
(0.997328 0.00095263 0)
(0.991656 0.0012173 0)
(0.997009 0.00183045 0)
(0.999998 9.58423e-07 0)
(0.999994 5.00682e-06 0)
(0.999948 2.53159e-07 0)
(1.00001 3.86572e-05 0)
(0.999712 -8.96428e-05 0)
(1.00035 0.000363791 0)
(0.998748 -0.000935434 0)
(1.00167 0.00222004 0)
(0.997175 -0.00394031 0)
(1.0023 0.00514146 0)
(0.998038 -0.00393408 0)
(1.00157 1.98765e-05 0)
(0.996127 0.00315742 0)
(1.00449 -0.00116733 0)
(0.996315 -0.00270846 0)
(0.999229 0.00136539 0)
(0.998292 0.00229911 0)
(1.00208 0.000179138 0)
(0.997747 -0.00199889 0)
(0.999155 -0.00136735 0)
(0.996851 0.000395205 0)
(0.998728 0.00189832 0)
(0.997939 0.00168252 0)
(0.99997 0.000599708 0)
(0.99864 -0.000786917 0)
(0.998438 -0.00133198 0)
(0.996661 -0.00124841 0)
(0.996936 -0.000359779 0)
(0.996265 0.00055119 0)
(0.996571 0.00128001 0)
(0.995962 0.00164179 0)
(0.996527 0.00210747 0)
(0.996673 0.00200017 0)
(0.996837 0.00163336 0)
(0.996431 0.00139271 0)
(0.996157 0.00117739 0)
(0.995722 0.00125758 0)
(0.995804 0.00175269 0)
(0.99576 0.00211316 0)
(0.996078 0.0029399 0)
(0.999998 1.15852e-06 0)
(0.999993 5.49905e-06 0)
(0.999949 1.07977e-06 0)
(1 3.82974e-05 0)
(0.999731 -8.04515e-05 0)
(1.00028 0.000331988 0)
(0.998978 -0.000821334 0)
(1.00104 0.00192108 0)
(0.998585 -0.00332969 0)
(0.999547 0.00424039 0)
(1.00162 -0.00313938 0)
(0.997228 -9.75454e-05 0)
(0.998985 0.00263069 0)
(1.00257 -0.000930454 0)
(0.997969 -0.00208512 0)
(0.996791 0.00103274 0)
(0.999886 0.00180622 0)
(1.00101 0.000139838 0)
(0.998968 -0.00139698 0)
(0.997755 -0.0010218 0)
(0.997374 0.000337452 0)
(0.997765 0.00141222 0)
(0.998671 0.00133549 0)
(0.999589 0.000499755 0)
(0.999257 -0.000433416 0)
(0.998027 -0.000844839 0)
(0.996861 -0.000738499 0)
(0.996375 -0.000150205 0)
(0.996272 0.000561863 0)
(0.996227 0.00109951 0)
(0.99612 0.00141127 0)
(0.996368 0.00176003 0)
(0.996894 0.00181974 0)
(0.997009 0.00158288 0)
(0.996793 0.0014357 0)
(0.996497 0.00132234 0)
(0.996071 0.00145013 0)
(0.996014 0.00176241 0)
(0.996025 0.00197521 0)
(0.996214 0.00240425 0)
(0.999998 1.56596e-06 0)
(0.999993 7.01508e-06 0)
(0.99995 2.48641e-06 0)
(0.999996 4.42989e-05 0)
(0.999749 -8.35488e-05 0)
(1.00023 0.00035465 0)
(0.999112 -0.000845744 0)
(1.00077 0.0019652 0)
(0.998959 -0.00333609 0)
(0.999155 0.00421137 0)
(1.00171 -0.00304149 0)
(0.997198 -9.77855e-05 0)
(0.999128 0.00256742 0)
(1.00194 -0.000907523 0)
(0.998324 -0.0019227 0)
(0.997005 0.00103421 0)
(0.999835 0.00166891 0)
(1.00051 0.000128977 0)
(0.998889 -0.0011996 0)
(0.99795 -0.000849332 0)
(0.997772 0.000355992 0)
(0.997855 0.00130924 0)
(0.998492 0.00125922 0)
(0.999196 0.000521521 0)
(0.998984 -0.000277481 0)
(0.997964 -0.000611751 0)
(0.997062 -0.000473494 0)
(0.996695 4.35689e-05 0)
(0.996611 0.000658159 0)
(0.996502 0.00117691 0)
(0.996311 0.00149643 0)
(0.9964 0.00177276 0)
(0.996815 0.00187186 0)
(0.996938 0.0017639 0)
(0.99678 0.00173367 0)
(0.996575 0.00175542 0)
(0.996265 0.00186492 0)
(0.996366 0.00216888 0)
(0.996534 0.00242804 0)
(0.99683 0.0028274 0)
(0.999998 1.92917e-06 0)
(0.999993 7.93908e-06 0)
(0.999951 3.9749e-06 0)
(0.999993 4.4994e-05 0)
(0.99976 -7.34437e-05 0)
(1.0002 0.000325598 0)
(0.999175 -0.000735394 0)
(1.00066 0.00169086 0)
(0.999072 -0.00277462 0)
(0.999121 0.0034286 0)
(1.00156 -0.00234987 0)
(0.997424 -0.00017821 0)
(0.999088 0.00211072 0)
(1.00171 -0.000707552 0)
(0.998446 -0.00141137 0)
(0.997181 0.000809952 0)
(0.999774 0.00124455 0)
(1.00034 0.000119086 0)
(0.998834 -0.000727804 0)
(0.998041 -0.000532373 0)
(0.997928 0.000296481 0)
(0.997938 0.000974199 0)
(0.99844 0.000993603 0)
(0.999068 0.000492716 0)
(0.998887 -1.38795e-05 0)
(0.997952 -0.000201652 0)
(0.997141 -7.76967e-05 0)
(0.996849 0.000273937 0)
(0.996783 0.000711387 0)
(0.996656 0.00110093 0)
(0.996488 0.00138635 0)
(0.996552 0.00164093 0)
(0.996866 0.00177128 0)
(0.99701 0.00177381 0)
(0.996881 0.00183386 0)
(0.996708 0.00189728 0)
(0.996522 0.00203955 0)
(0.996586 0.00226402 0)
(0.996795 0.00241518 0)
(0.997106 0.00268488 0)
(0.999998 2.32979e-06 0)
(0.999993 9.31099e-06 0)
(0.999952 5.59344e-06 0)
(0.999988 4.94327e-05 0)
(0.999777 -7.1729e-05 0)
(1.00016 0.000333676 0)
(0.999278 -0.000723793 0)
(1.00049 0.00166233 0)
(0.999244 -0.00266408 0)
(0.999115 0.00326397 0)
(1.00125 -0.0021534 0)
(0.997876 -0.000210442 0)
(0.999014 0.00203389 0)
(1.00128 -0.000656522 0)
(0.998657 -0.00126921 0)
(0.997559 0.000805276 0)
(0.99966 0.00113775 0)
(1 0.000120118 0)
(0.998722 -0.000566396 0)
(0.99826 -0.000394474 0)
(0.998254 0.000319591 0)
(0.998084 0.000926789 0)
(0.998303 0.000960819 0)
(0.998786 0.000532119 0)
(0.998684 0.000106131 0)
(0.997939 -2.08564e-05 0)
(0.99731 0.000124948 0)
(0.997131 0.000440307 0)
(0.997098 0.000826371 0)
(0.996936 0.00119451 0)
(0.996689 0.0014909 0)
(0.996664 0.00171125 0)
(0.996901 0.00184479 0)
(0.997002 0.00189721 0)
(0.996895 0.00197756 0)
(0.996784 0.00208327 0)
(0.996658 0.00220751 0)
(0.996786 0.00238163 0)
(0.997068 0.00253945 0)
(0.99744 0.00274001 0)
(0.999998 2.7899e-06 0)
(0.999993 1.05435e-05 0)
(0.999954 7.72612e-06 0)
(0.999985 5.07858e-05 0)
(0.999789 -6.02822e-05 0)
(1.00012 0.000306625 0)
(0.999343 -0.000618486 0)
(1.00039 0.00141796 0)
(0.999337 -0.00217424 0)
(0.999125 0.00261278 0)
(1.00106 -0.0015893 0)
(0.998131 -0.000267658 0)
(0.998971 0.00168763 0)
(1.00108 -0.000492167 0)
(0.998783 -0.000907352 0)
(0.997713 0.000680974 0)
(0.999592 0.000837173 0)
(0.999898 0.000120604 0)
(0.998701 -0.000235699 0)
(0.998322 -0.000147685 0)
(0.998366 0.000288622 0)
(0.998161 0.000734109 0)
(0.998282 0.000808163 0)
(0.998714 0.000546439 0)
(0.998647 0.000298416 0)
(0.997971 0.000273444 0)
(0.997392 0.0004122 0)
(0.997253 0.000635847 0)
(0.99725 0.000916923 0)
(0.997101 0.00120394 0)
(0.996865 0.00146806 0)
(0.996832 0.00169104 0)
(0.997026 0.00183354 0)
(0.997143 0.00193612 0)
(0.997077 0.00207371 0)
(0.996964 0.00220203 0)
(0.99688 0.0023428 0)
(0.997008 0.00250031 0)
(0.997286 0.00262354 0)
(0.997689 0.00277455 0)
(0.999998 3.26954e-06 0)
(0.999992 1.19231e-05 0)
(0.999955 9.79035e-06 0)
(0.99998 5.40288e-05 0)
(0.999806 -5.40271e-05 0)
(1.00008 0.000302745 0)
(0.999432 -0.000577697 0)
(1.00025 0.00133533 0)
(0.999467 -0.00198187 0)
(0.999149 0.00236417 0)
(1.00079 -0.00133714 0)
(0.998494 -0.000315298 0)
(0.998938 0.00160363 0)
(1.00073 -0.000409891 0)
(0.998951 -0.000805462 0)
(0.997994 0.000682621 0)
(0.999499 0.000769583 0)
(0.999684 0.000126426 0)
(0.99864 -0.000105559 0)
(0.998449 -2.99049e-05 0)
(0.998588 0.000312244 0)
(0.99829 0.000721898 0)
(0.998215 0.000827542 0)
(0.998545 0.000592804 0)
(0.998547 0.000399007 0)
(0.998004 0.000414453 0)
(0.997527 0.00057497 0)
(0.997457 0.000776534 0)
(0.997492 0.00102922 0)
(0.997349 0.00129792 0)
(0.997079 0.00157673 0)
(0.996974 0.0017898 0)
(0.997125 0.00193219 0)
(0.997241 0.00204529 0)
(0.997177 0.00218391 0)
(0.997093 0.0022966 0)
(0.997028 0.00241499 0)
(0.997161 0.00250951 0)
(0.99747 0.00258111 0)
(0.997873 0.00268117 0)
(0.999998 3.79704e-06 0)
(0.999992 1.33239e-05 0)
(0.999957 1.24608e-05 0)
(0.999976 5.56048e-05 0)
(0.999819 -4.082e-05 0)
(1.00005 0.000276629 0)
(0.999495 -0.000476403 0)
(1.00015 0.0011193 0)
(0.999543 -0.00156082 0)
(0.999179 0.00183737 0)
(1.0006 -0.000894818 0)
(0.99872 -0.000343517 0)
(0.998919 0.00133724 0)
(1.00054 -0.000255416 0)
(0.999075 -0.000576193 0)
(0.998119 0.000621856 0)
(0.999422 0.000601186 0)
(0.999634 0.000121579 0)
(0.998658 0.000111569 0)
(0.998477 0.000165682 0)
(0.998661 0.000311552 0)
(0.998375 0.000619174 0)
(0.998219 0.000777579 0)
(0.998507 0.000634628 0)
(0.998562 0.000533517 0)
(0.998081 0.000607607 0)
(0.997621 0.000797026 0)
(0.99756 0.000927602 0)
(0.99763 0.00112714 0)
(0.997533 0.00132771 0)
(0.997284 0.00160251 0)
(0.997161 0.00181302 0)
(0.997284 0.00198408 0)
(0.99742 0.00211529 0)
(0.997375 0.00231294 0)
(0.997259 0.00249749 0)
(0.997168 0.0026561 0)
(0.997249 0.00277659 0)
(0.997556 0.00279152 0)
(0.997999 0.00276132 0)
(0.999999 4.36712e-06 0)
(0.999992 1.48329e-05 0)
(0.999958 1.51892e-05 0)
(0.999971 5.8129e-05 0)
(0.999834 -3.05597e-05 0)
(1.00002 0.000264204 0)
(0.999568 -0.000414991 0)
(1.00005 0.0010041 0)
(0.999628 -0.00132516 0)
(0.999227 0.00155807 0)
(1.00037 -0.00063626 0)
(0.998988 -0.000377556 0)
(0.998931 0.00123374 0)
(1.00026 -0.000134422 0)
(0.999206 -0.000510453 0)
(0.99833 0.000616382 0)
(0.999337 0.000595073 0)
(0.99952 0.000127049 0)
(0.998656 0.000195665 0)
(0.998532 0.00028081 0)
(0.998791 0.000347501 0)
(0.998507 0.000615753 0)
(0.998217 0.000817852 0)
(0.99841 0.000719936 0)
(0.998534 0.000609879 0)
(0.998173 0.000703961 0)
(0.997747 0.000921379 0)
(0.997703 0.00105972 0)
(0.997814 0.00122378 0)
(0.997762 0.00140888 0)
(0.99753 0.00166938 0)
(0.997354 0.00190148 0)
(0.99745 0.0020582 0)
(0.997629 0.00217412 0)
(0.997661 0.00232294 0)
(0.997563 0.00249541 0)
(0.99744 0.00263141 0)
(0.997369 0.0027434 0)
(0.997432 0.00275146 0)
(0.997385 0.00270635 0)
(0.999999 4.98744e-06 0)
(0.999991 1.63873e-05 0)
(0.99996 1.83879e-05 0)
(0.999967 5.9742e-05 0)
(0.999846 -1.56971e-05 0)
(0.999988 0.000239547 0)
(0.999623 -0.000320178 0)
(0.999972 0.000820943 0)
(0.999679 -0.000978177 0)
(0.999275 0.0011577 0)
(1.00021 -0.000317252 0)
(0.999164 -0.000359834 0)
(0.998951 0.0010096 0)
(1.00008 2.09815e-05 0)
(0.999313 -0.00036307 0)
(0.998452 0.000565089 0)
(0.99925 0.00054697 0)
(0.999499 0.000136788 0)
(0.998724 0.000303917 0)
(0.99854 0.000442317 0)
(0.998817 0.000398539 0)
(0.998608 0.000561896 0)
(0.998272 0.000806872 0)
(0.998388 0.00080484 0)
(0.998561 0.00072255 0)
(0.998298 0.000814301 0)
(0.997882 0.00105154 0)
(0.997798 0.00120562 0)
(0.997928 0.00131393 0)
(0.997947 0.0014588 0)
(0.997777 0.00167507 0)
(0.997579 0.00190852 0)
(0.997599 0.00208786 0)
(0.997752 0.00218987 0)
(0.997808 0.00230854 0)
(0.997704 0.0024477 0)
(0.997555 0.00257078 0)
(0.997446 0.00265527 0)
(0.997491 0.00268264 0)
(0.997559 0.00262322 0)
(0.999999 5.65538e-06 0)
(0.999991 1.80442e-05 0)
(0.999962 2.17739e-05 0)
(0.999963 6.19883e-05 0)
(0.999859 -2.57116e-06 0)
(0.99996 0.000223224 0)
(0.999677 -0.000249728 0)
(0.999901 0.000699834 0)
(0.999723 -0.000744669 0)
(0.999338 0.000907273 0)
(1.00003 -0.000107736 0)
(0.999335 -0.000342358 0)
(0.999012 0.000874634 0)
(0.999864 0.000156406 0)
(0.999394 -0.000296321 0)
(0.998632 0.000523741 0)
(0.999175 0.000591922 0)
(0.99943 0.000176749 0)
(0.998787 0.000326925 0)
(0.998574 0.000535331 0)
(0.998856 0.000480328 0)
(0.998731 0.000569792 0)
(0.998354 0.000826167 0)
(0.998354 0.000897024 0)
(0.998544 0.000828152 0)
(0.998418 0.000875233 0)
(0.998057 0.00111326 0)
(0.997929 0.00130033 0)
(0.99805 0.00140908 0)
(0.998126 0.00151886 0)
(0.998017 0.00169318 0)
(0.997835 0.0019022 0)
(0.997803 0.00209506 0)
(0.997931 0.00219807 0)
(0.998044 0.002297 0)
(0.997983 0.00240588 0)
(0.997799 0.00253756 0)
(0.997574 0.00262216 0)
(0.997355 0.00267282 0)
(0.997005 0.00260432 0)
(0.999999 6.37739e-06 0)
(0.999991 1.97801e-05 0)
(0.999963 2.55343e-05 0)
(0.99996 6.38826e-05 0)
(0.99987 1.33997e-05 0)
(0.999939 0.000202129 0)
(0.999718 -0.000166548 0)
(0.999854 0.000558568 0)
(0.999747 -0.00048299 0)
(0.999398 0.000641958 0)
(0.999906 8.26842e-05 0)
(0.999443 -0.000259611 0)
(0.999076 0.000681865 0)
(0.999716 0.000282683 0)
(0.999454 -0.00015821 0)
(0.998767 0.000461391 0)
(0.999105 0.000598079 0)
(0.999396 0.000245674 0)
(0.998894 0.000366006 0)
(0.998612 0.000623 0)
(0.998837 0.000583456 0)
(0.998812 0.000585516 0)
(0.998476 0.000810686 0)
(0.998388 0.00096364 0)
(0.99855 0.000950724 0)
(0.99853 0.000973712 0)
(0.998246 0.00116294 0)
(0.99807 0.00137624 0)
(0.998145 0.00148753 0)
(0.998254 0.00157538 0)
(0.998224 0.00169701 0)
(0.998084 0.00187323 0)
(0.997997 0.00204084 0)
(0.998045 0.00214751 0)
(0.998133 0.00220679 0)
(0.998111 0.00226232 0)
(0.997949 0.00234529 0)
(0.997714 0.00242401 0)
(0.997452 0.00249902 0)
(0.997109 0.00253752 0)
(0.999999 7.15249e-06 0)
(0.99999 2.16274e-05 0)
(0.999965 2.95208e-05 0)
(0.999957 6.63021e-05 0)
(0.999881 2.80994e-05 0)
(0.99992 0.000187126 0)
(0.999754 -9.98563e-05 0)
(0.999817 0.000458695 0)
(0.99976 -0.00029542 0)
(0.999463 0.00047336 0)
(0.999791 0.000197315 0)
(0.999524 -0.000175222 0)
(0.999168 0.000550171 0)
(0.999577 0.000373938 0)
(0.999473 -5.24408e-05 0)
(0.998927 0.000403413 0)
(0.999076 0.000626771 0)
(0.999329 0.000340307 0)
(0.998978 0.000378924 0)
(0.998687 0.000648093 0)
(0.998836 0.000679317 0)
(0.99888 0.000651168 0)
(0.998611 0.000818502 0)
(0.998454 0.00100573 0)
(0.998553 0.00104825 0)
(0.998605 0.00106184 0)
(0.99843 0.00119324 0)
(0.998251 0.00139919 0)
(0.998265 0.00153739 0)
(0.998371 0.0016215 0)
(0.998394 0.00171195 0)
(0.998301 0.0018405 0)
(0.998203 0.00198714 0)
(0.998193 0.00210087 0)
(0.998241 0.00217559 0)
(0.998241 0.00222874 0)
(0.998122 0.0023 0)
(0.997907 0.00237754 0)
(0.997619 0.00245839 0)
(0.997225 0.00251596 0)
(0.999999 7.98367e-06 0)
(0.99999 2.35847e-05 0)
(0.999966 3.37964e-05 0)
(0.999954 6.88914e-05 0)
(0.999889 4.37191e-05 0)
(0.999906 0.000172428 0)
(0.99978 -3.35861e-05 0)
(0.999795 0.000367038 0)
(0.999763 -0.000125169 0)
(0.99952 0.000341631 0)
(0.999716 0.000270053 0)
(0.999566 -5.2834e-05 0)
(0.999251 0.000427477 0)
(0.999493 0.000421902 0)
(0.999479 9.3984e-05 0)
(0.999054 0.000373725 0)
(0.999067 0.000613026 0)
(0.999279 0.00043775 0)
(0.999065 0.000434093 0)
(0.998784 0.000672152 0)
(0.998837 0.000760031 0)
(0.99891 0.000732766 0)
(0.998737 0.000837815 0)
(0.998568 0.00102577 0)
(0.998598 0.00112404 0)
(0.998668 0.00115795 0)
(0.998585 0.00124592 0)
(0.998439 0.00141347 0)
(0.998403 0.0015595 0)
(0.998473 0.00165137 0)
(0.998523 0.00172446 0)
(0.998487 0.00182017 0)
(0.998408 0.0019401 0)
(0.998366 0.0020493 0)
(0.998369 0.00213146 0)
(0.99836 0.00218879 0)
(0.998269 0.0022479 0)
(0.998083 0.00231399 0)
(0.997799 0.00238575 0)
(0.997388 0.00245109 0)
(0.999999 8.87049e-06 0)
(0.99999 2.5673e-05 0)
(0.999968 3.82868e-05 0)
(0.999952 7.20498e-05 0)
(0.999897 5.85707e-05 0)
(0.999896 0.000163015 0)
(0.9998 1.97236e-05 0)
(0.999783 0.000305392 0)
(0.999761 -5.59137e-06 0)
(0.999571 0.000270595 0)
(0.999663 0.000302272 0)
(0.999587 5.13083e-05 0)
(0.999336 0.000360032 0)
(0.999441 0.000446709 0)
(0.999461 0.00020926 0)
(0.999167 0.00036386 0)
(0.999102 0.000601733 0)
(0.999236 0.000528204 0)
(0.999119 0.000495344 0)
(0.998889 0.000677304 0)
(0.998876 0.000806708 0)
(0.998941 0.000817739 0)
(0.998846 0.000884182 0)
(0.998697 0.00104146 0)
(0.998674 0.00116461 0)
(0.998729 0.00122538 0)
(0.998708 0.00129374 0)
(0.998616 0.00142103 0)
(0.998563 0.00155621 0)
(0.998595 0.00165824 0)
(0.998642 0.0017318 0)
(0.998644 0.00180878 0)
(0.998593 0.00190187 0)
(0.998545 0.00199821 0)
(0.998519 0.00208024 0)
(0.998493 0.002145 0)
(0.998414 0.00220261 0)
(0.998254 0.00226411 0)
(0.997992 0.00232891 0)
(0.997584 0.00239515 0)
(0.999999 9.81351e-06 0)
(0.99999 2.79e-05 0)
(0.999969 4.29936e-05 0)
(0.999951 7.57286e-05 0)
(0.999903 7.3157e-05 0)
(0.999889 0.000156673 0)
(0.999815 6.73342e-05 0)
(0.999779 0.000260591 0)
(0.999757 8.74008e-05 0)
(0.999612 0.000235606 0)
(0.999638 0.000312617 0)
(0.999595 0.000154402 0)
(0.999404 0.000328968 0)
(0.999424 0.00044629 0)
(0.999448 0.000317177 0)
(0.999251 0.000394062 0)
(0.99915 0.000586618 0)
(0.999219 0.000591258 0)
(0.999164 0.000573148 0)
(0.998994 0.000704154 0)
(0.998938 0.000840661 0)
(0.998974 0.000887307 0)
(0.998931 0.000940161 0)
(0.998827 0.00106264 0)
(0.998781 0.00118916 0)
(0.998809 0.00127306 0)
(0.998815 0.00134012 0)
(0.998769 0.00143753 0)
(0.998724 0.00155084 0)
(0.99873 0.00165089 0)
(0.998761 0.00172703 0)
(0.998779 0.00179646 0)
(0.998758 0.00187119 0)
(0.998721 0.00195337 0)
(0.998685 0.00202951 0)
(0.998646 0.00209674 0)
(0.99857 0.00215487 0)
(0.998426 0.00221364 0)
(0.998183 0.00227241 0)
(0.997788 0.00233376 0)
(0.999999 1.08117e-05 0)
(0.99999 3.02786e-05 0)
(0.99997 4.78789e-05 0)
(0.999951 8.00742e-05 0)
(0.999909 8.70147e-05 0)
(0.999886 0.00015479 0)
(0.999826 0.000105249 0)
(0.999781 0.000236489 0)
(0.999755 0.000149839 0)
(0.999645 0.000230721 0)
(0.999629 0.000315583 0)
(0.999598 0.000229537 0)
(0.99946 0.000328324 0)
(0.999431 0.000445764 0)
(0.999439 0.000394555 0)
(0.999314 0.000434139 0)
(0.999213 0.000583538 0)
(0.999228 0.000637924 0)
(0.9992 0.000644577 0)
(0.999086 0.000736643 0)
(0.999019 0.000861655 0)
(0.999027 0.000936168 0)
(0.99901 0.000994506 0)
(0.998946 0.00109125 0)
(0.9989 0.00120395 0)
(0.998905 0.00129613 0)
(0.998917 0.00136797 0)
(0.998903 0.00144956 0)
(0.998875 0.00154273 0)
(0.998873 0.0016344 0)
(0.998891 0.00171004 0)
(0.99891 0.00177743 0)
(0.998907 0.00184182 0)
(0.998886 0.00191143 0)
(0.998852 0.00197833 0)
(0.998808 0.00204217 0)
(0.998732 0.00209856 0)
(0.998599 0.00215426 0)
(0.998372 0.00220828 0)
(0.997995 0.00226477 0)
(0.999999 1.18636e-05 0)
(0.99999 3.2815e-05 0)
(0.999971 5.29281e-05 0)
(0.999951 8.50881e-05 0)
(0.999913 0.000100274 0)
(0.999885 0.000156484 0)
(0.999834 0.000137128 0)
(0.999786 0.000225896 0)
(0.999755 0.000195891 0)
(0.999671 0.000242189 0)
(0.999634 0.000318763 0)
(0.999603 0.000289018 0)
(0.999503 0.000348204 0)
(0.999454 0.000447934 0)
(0.999444 0.000451654 0)
(0.999363 0.000484772 0)
(0.999277 0.000595563 0)
(0.99926 0.000670207 0)
(0.999239 0.000704113 0)
(0.999167 0.000778359 0)
(0.999108 0.000885345 0)
(0.999097 0.000970935 0)
(0.999088 0.00103735 0)
(0.999053 0.00111959 0)
(0.999019 0.00121618 0)
(0.999015 0.00130685 0)
(0.999024 0.00138214 0)
(0.999026 0.00145633 0)
(0.999016 0.00153455 0)
(0.999015 0.00161464 0)
(0.999025 0.00168506 0)
(0.999042 0.00174932 0)
(0.999046 0.00180755 0)
(0.999038 0.00186764 0)
(0.999013 0.0019255 0)
(0.998971 0.00198312 0)
(0.998898 0.00203575 0)
(0.998774 0.00208794 0)
(0.998562 0.0021382 0)
(0.998205 0.00219079 0)
(0.999999 1.2967e-05 0)
(0.99999 3.55124e-05 0)
(0.999973 5.81205e-05 0)
(0.999951 9.07803e-05 0)
(0.999917 0.000112916 0)
(0.999886 0.000161574 0)
(0.999842 0.000163349 0)
(0.999794 0.000226814 0)
(0.999758 0.000228812 0)
(0.999692 0.000262519 0)
(0.999647 0.000327272 0)
(0.999612 0.000332995 0)
(0.999539 0.000376914 0)
(0.999485 0.000458906 0)
(0.999461 0.000493834 0)
(0.999406 0.000531794 0)
(0.999338 0.000617424 0)
(0.999308 0.000697144 0)
(0.999287 0.000750427 0)
(0.999242 0.000818338 0)
(0.999197 0.000908899 0)
(0.999179 0.00099471 0)
(0.999171 0.00106699 0)
(0.999155 0.00114285 0)
(0.999135 0.00122649 0)
(0.99913 0.00130966 0)
(0.999136 0.0013832 0)
(0.999144 0.00145266 0)
(0.999146 0.00152075 0)
(0.999151 0.00159012 0)
(0.99916 0.00165368 0)
(0.999174 0.00171326 0)
(0.999182 0.00176656 0)
(0.999182 0.00181959 0)
(0.999165 0.00186977 0)
(0.99913 0.00192048 0)
(0.999063 0.00196799 0)
(0.998949 0.00201596 0)
(0.998752 0.00206254 0)
(0.99842 0.00211179 0)
(0.999999 1.41183e-05 0)
(0.999991 3.83672e-05 0)
(0.999974 6.34416e-05 0)
(0.999953 9.71022e-05 0)
(0.999921 0.000125069 0)
(0.999889 0.000169348 0)
(0.999849 0.000185776 0)
(0.999803 0.000234945 0)
(0.999765 0.000255127 0)
(0.999711 0.000286166 0)
(0.999664 0.000340952 0)
(0.999627 0.00036763 0)
(0.999572 0.000408582 0)
(0.999521 0.000476907 0)
(0.99949 0.000526911 0)
(0.999449 0.000573214 0)
(0.999398 0.000645136 0)
(0.999365 0.000721778 0)
(0.999344 0.000785214 0)
(0.999315 0.000852159 0)
(0.999284 0.000931718 0)
(0.999267 0.00101251 0)
(0.999261 0.00108572 0)
(0.999254 0.00115746 0)
(0.999246 0.00123159 0)
(0.999244 0.00130609 0)
(0.999251 0.00137489 0)
(0.999261 0.00143966 0)
(0.99927 0.00150076 0)
(0.99928 0.00156136 0)
(0.99929 0.00161762 0)
(0.999304 0.00167122 0)
(0.999313 0.00171945 0)
(0.999318 0.00176654 0)
(0.999308 0.00181045 0)
(0.999282 0.00185477 0)
(0.999224 0.00189685 0)
(0.999122 0.00194008 0)
(0.998944 0.00198269 0)
(0.99864 0.00202857 0)
(1 1.53129e-05 0)
(0.999991 4.13687e-05 0)
(0.999975 6.88741e-05 0)
(0.999954 0.000103979 0)
(0.999925 0.000136838 0)
(0.999893 0.000179212 0)
(0.999856 0.000205508 0)
(0.999814 0.000247825 0)
(0.999776 0.00027761 0)
(0.999729 0.000310318 0)
(0.999685 0.000358799 0)
(0.999648 0.000396451 0)
(0.999603 0.000439159 0)
(0.999559 0.000499226 0)
(0.999527 0.00055508 0)
(0.999494 0.000607819 0)
(0.999456 0.000673166 0)
(0.999427 0.00074487 0)
(0.999408 0.000811696 0)
(0.999389 0.00087837 0)
(0.99937 0.000950632 0)
(0.999358 0.00102478 0)
(0.999354 0.00109513 0)
(0.999353 0.00116291 0)
(0.999353 0.00122993 0)
(0.999357 0.00129647 0)
(0.999365 0.00135915 0)
(0.999377 0.00141843 0)
(0.999389 0.00147354 0)
(0.999402 0.00152694 0)
(0.999415 0.00157651 0)
(0.999429 0.00162399 0)
(0.99944 0.00166709 0)
(0.999448 0.0017088 0)
(0.999444 0.00174735 0)
(0.999425 0.00178596 0)
(0.999378 0.00182278 0)
(0.999291 0.00186104 0)
(0.999134 0.00189935 0)
(0.998863 0.00194149 0)
(1 1.65439e-05 0)
(0.999991 4.44978e-05 0)
(0.999976 7.43957e-05 0)
(0.999956 0.000111304 0)
(0.99993 0.000148324 0)
(0.999899 0.000190544 0)
(0.999864 0.000223529 0)
(0.999826 0.000263315 0)
(0.999789 0.000298293 0)
(0.999748 0.000333784 0)
(0.999708 0.000379024 0)
(0.999673 0.000421932 0)
(0.999636 0.000467264 0)
(0.9996 0.000522991 0)
(0.99957 0.000580071 0)
(0.999543 0.000636279 0)
(0.999515 0.000698414 0)
(0.999493 0.000765431 0)
(0.999478 0.000831398 0)
(0.999465 0.000896614 0)
(0.999455 0.000963531 0)
(0.999449 0.00103132 0)
(0.999449 0.0010969 0)
(0.999452 0.00116001 0)
(0.999457 0.00122098 0)
(0.999465 0.00128043 0)
(0.999476 0.0013367 0)
(0.999489 0.00139007 0)
(0.999504 0.00143958 0)
(0.999519 0.00148682 0)
(0.999534 0.00153052 0)
(0.999549 0.00157223 0)
(0.999562 0.0016103 0)
(0.999571 0.0016469 0)
(0.999572 0.00168063 0)
(0.99956 0.00171413 0)
(0.999523 0.00174612 0)
(0.999452 0.00177951 0)
(0.999318 0.00181341 0)
(0.999085 0.00185142 0)
(1 1.78023e-05 0)
(0.999992 4.77261e-05 0)
(0.999978 7.99734e-05 0)
(0.999959 0.000118949 0)
(0.999934 0.000159575 0)
(0.999905 0.000202792 0)
(0.999873 0.000240417 0)
(0.999838 0.000280049 0)
(0.999804 0.000317948 0)
(0.999769 0.000356037 0)
(0.999734 0.000399962 0)
(0.999702 0.00044511 0)
(0.999671 0.000492368 0)
(0.999642 0.000545835 0)
(0.999617 0.00060217 0)
(0.999595 0.000659179 0)
(0.999576 0.000719087 0)
(0.99956 0.000781974 0)
(0.99955 0.000845001 0)
(0.999543 0.000907337 0)
(0.999539 0.000969546 0)
(0.999539 0.00103147 0)
(0.999543 0.00109157 0)
(0.99955 0.00114939 0)
(0.999559 0.00120464 0)
(0.99957 0.00125776 0)
(0.999583 0.00130793 0)
(0.999598 0.00135545 0)
(0.999614 0.00139955 0)
(0.99963 0.00144124 0)
(0.999646 0.00147969 0)
(0.999663 0.00151614 0)
(0.999676 0.00154951 0)
(0.999688 0.0015814 0)
(0.999692 0.00161078 0)
(0.999685 0.00163971 0)
(0.999659 0.00166732 0)
(0.999603 0.00169611 0)
(0.999495 0.00172563 0)
(0.999302 0.00175914 0)
(1 1.90753e-05 0)
(0.999992 5.10143e-05 0)
(0.99998 8.55585e-05 0)
(0.999962 0.000126762 0)
(0.999939 0.000170578 0)
(0.999913 0.00021545 0)
(0.999884 0.00025645 0)
(0.999853 0.00029701 0)
(0.999822 0.000336726 0)
(0.999791 0.000376704 0)
(0.999762 0.000420271 0)
(0.999734 0.00046612 0)
(0.999709 0.000514164 0)
(0.999686 0.000566142 0)
(0.999667 0.000620862 0)
(0.999651 0.000676835 0)
(0.999638 0.000734342 0)
(0.999629 0.00079337 0)
(0.999624 0.000852521 0)
(0.999622 0.000910954 0)
(0.999624 0.000968427 0)
(0.999628 0.00102481 0)
(0.999635 0.00107932 0)
(0.999645 0.00113161 0)
(0.999657 0.00118129 0)
(0.999671 0.0012286 0)
(0.999686 0.00127308 0)
(0.999702 0.00131505 0)
(0.999719 0.00135399 0)
(0.999736 0.00139059 0)
(0.999753 0.00142429 0)
(0.99977 0.00145603 0)
(0.999784 0.00148511 0)
(0.999797 0.00151272 0)
(0.999804 0.00153816 0)
(0.999802 0.00156299 0)
(0.999785 0.00158667 0)
(0.999744 0.0016112 0)
(0.99966 0.00163648 0)
(0.999508 0.00166531 0)
(1 2.03462e-05 0)
(0.999993 5.43114e-05 0)
(0.999981 9.1081e-05 0)
(0.999965 0.000134573 0)
(0.999945 0.000181246 0)
(0.999921 0.000228065 0)
(0.999896 0.000271632 0)
(0.999868 0.00031345 0)
(0.999842 0.000354365 0)
(0.999816 0.000395508 0)
(0.999791 0.000438923 0)
(0.999769 0.000484613 0)
(0.99975 0.000532401 0)
(0.999733 0.000582864 0)
(0.999719 0.000635451 0)
(0.999709 0.000689227 0)
(0.999702 0.0007438 0)
(0.999698 0.000798916 0)
(0.999698 0.000853767 0)
(0.999701 0.000907703 0)
(0.999707 0.000960277 0)
(0.999715 0.00101131 0)
(0.999725 0.00106032 0)
(0.999738 0.00110713 0)
(0.999752 0.00115139 0)
(0.999768 0.00119326 0)
(0.999784 0.00123246 0)
(0.999801 0.00126928 0)
(0.999818 0.0013034 0)
(0.999836 0.00133532 0)
(0.999853 0.00136468 0)
(0.99987 0.00139218 0)
(0.999885 0.00141737 0)
(0.999898 0.00144113 0)
(0.999907 0.00146303 0)
(0.99991 0.00148421 0)
(0.999901 0.00150435 0)
(0.999873 0.00152503 0)
(0.999812 0.00154632 0)
(0.999697 0.00157055 0)
(1 2.15928e-05 0)
(0.999994 5.7553e-05 0)
(0.999984 9.64466e-05 0)
(0.999969 0.000142189 0)
(0.999951 0.000191419 0)
(0.999931 0.000240209 0)
(0.999909 0.000285777 0)
(0.999886 0.000328765 0)
(0.999863 0.000370435 0)
(0.999842 0.000412069 0)
(0.999823 0.000455129 0)
(0.999806 0.000500036 0)
(0.999792 0.000546736 0)
(0.999781 0.000595288 0)
(0.999773 0.000645306 0)
(0.999768 0.000696138 0)
(0.999766 0.000747252 0)
(0.999767 0.000798253 0)
(0.999771 0.000848576 0)
(0.999778 0.000897733 0)
(0.999788 0.000945312 0)
(0.999799 0.000991107 0)
(0.999812 0.00103481 0)
(0.999827 0.00107631 0)
(0.999843 0.00111539 0)
(0.999859 0.00115216 0)
(0.999877 0.00118646 0)
(0.999894 0.00121853 0)
(0.999912 0.00124819 0)
(0.99993 0.00127583 0)
(0.999947 0.00130123 0)
(0.999963 0.00132489 0)
(0.999979 0.00134657 0)
(0.999993 0.0013669 0)
(1 0.00138561 0)
(1.00001 0.00140355 0)
(1.00001 0.00142055 0)
(0.999989 0.00143778 0)
(0.999948 0.00145544 0)
(0.999867 0.00147534 0)
(1 2.27873e-05 0)
(0.999995 6.06594e-05 0)
(0.999986 0.000101532 0)
(0.999974 0.000149388 0)
(0.999959 0.000200863 0)
(0.999941 0.000251457 0)
(0.999923 0.000298549 0)
(0.999904 0.000342407 0)
(0.999887 0.000384395 0)
(0.999871 0.000425924 0)
(0.999857 0.000468209 0)
(0.999845 0.000511802 0)
(0.999836 0.000556732 0)
(0.99983 0.000602892 0)
(0.999827 0.000649918 0)
(0.999827 0.000697312 0)
(0.99983 0.000744555 0)
(0.999836 0.000791239 0)
(0.999844 0.000836906 0)
(0.999854 0.000881203 0)
(0.999866 0.000923789 0)
(0.99988 0.000964488 0)
(0.999895 0.00100309 0)
(0.999911 0.00103955 0)
(0.999928 0.00107374 0)
(0.999946 0.00110575 0)
(0.999964 0.00113551 0)
(0.999981 0.00116322 0)
(0.999999 0.0011888 0)
(1.00002 0.00121253 0)
(1.00003 0.00123432 0)
(1.00005 0.00125453 0)
(1.00007 0.00127303 0)
(1.00008 0.00129028 0)
(1.00009 0.00130614 0)
(1.0001 0.00132121 0)
(1.0001 0.00133543 0)
(1.00009 0.00134965 0)
(1.00007 0.00136409 0)
(1.00002 0.0013801 0)
(1 2.3894e-05 0)
(0.999996 6.35354e-05 0)
(0.999988 0.000106189 0)
(0.999978 0.000155929 0)
(0.999966 0.000209291 0)
(0.999952 0.00026138 0)
(0.999938 0.000309535 0)
(0.999924 0.000353849 0)
(0.999911 0.000395698 0)
(0.9999 0.000436564 0)
(0.999892 0.000477594 0)
(0.999885 0.000519366 0)
(0.999882 0.000561979 0)
(0.999881 0.000605285 0)
(0.999882 0.00064895 0)
(0.999887 0.000692555 0)
(0.999894 0.000735655 0)
(0.999903 0.000777875 0)
(0.999914 0.000818853 0)
(0.999927 0.000858313 0)
(0.999941 0.000896003 0)
(0.999957 0.000931792 0)
(0.999974 0.00096555 0)
(0.999991 0.000997269 0)
(1.00001 0.00102689 0)
(1.00003 0.0010545 0)
(1.00004 0.00108009 0)
(1.00006 0.00110382 0)
(1.00008 0.00112567 0)
(1.0001 0.00114587 0)
(1.00011 0.00116439 0)
(1.00013 0.00118149 0)
(1.00014 0.00119714 0)
(1.00016 0.00121165 0)
(1.00017 0.00122498 0)
(1.00018 0.00123754 0)
(1.00019 0.00124933 0)
(1.00018 0.00126095 0)
(1.00017 0.0012726 0)
(1.00014 0.00128527 0)
(1 2.48714e-05 0)
(0.999997 6.60645e-05 0)
(0.999991 0.000110223 0)
(0.999984 0.000161511 0)
(0.999974 0.000216328 0)
(0.999964 0.000269481 0)
(0.999954 0.0003182 0)
(0.999945 0.000362483 0)
(0.999937 0.000403703 0)
(0.999931 0.000443386 0)
(0.999927 0.000482672 0)
(0.999926 0.000522166 0)
(0.999927 0.000562015 0)
(0.999931 0.000602096 0)
(0.999937 0.000642117 0)
(0.999945 0.00068172 0)
(0.999955 0.000720528 0)
(0.999967 0.000758235 0)
(0.999981 0.000794554 0)
(0.999996 0.000829283 0)
(1.00001 0.000862248 0)
(1.00003 0.000893369 0)
(1.00005 0.000922573 0)
(1.00007 0.000949877 0)
(1.00008 0.000975273 0)
(1.0001 0.000998848 0)
(1.00012 0.00102063 0)
(1.00014 0.00104074 0)
(1.00015 0.00105923 0)
(1.00017 0.00107626 0)
(1.00019 0.00109184 0)
(1.0002 0.00110618 0)
(1.00022 0.00111928 0)
(1.00023 0.00113137 0)
(1.00024 0.00114244 0)
(1.00025 0.00115279 0)
(1.00026 0.00116245 0)