/*--------------------------------*- C++ -*----------------------------------*\
| =========                 |                                                 |
| \\      /  F ield         | OpenFOAM: The Open Source CFD Toolbox           |
|  \\    /   O peration     | Version:  2312                                  |
|   \\  /    A nd           | Website:  www.openfoam.com                      |
|    \\/     M anipulation  |                                                 |
\*---------------------------------------------------------------------------*/
FoamFile
{
    version     2.0;
    format      ascii;
    arch        "LSB;label=32;scalar=64";
    class       volScalarField;
    location    "0.75";
    object      p;
}
// * * * * * * * * * * * * * * * * * * * * * * * * * * * * * * * * * * * * * //

dimensions      [0 2 -2 0 0 0 0];

internalField   nonuniform List<scalar> 
5600
(
1.19291e-08
0.000474401
0.000304927
0.000442698
0.00036942
0.000527088
0.000507431
0.000649572
0.000666741
0.000805072
0.000862548
0.000988329
0.00107524
0.00120382
0.00131034
0.00144309
0.00156681
0.00170684
0.00185044
0.00200205
0.00215839
0.00232597
0.00250341
0.00269411
0.00288988
0.00309661
0.00330789
0.00353123
0.00376145
0.00400649
0.00426284
0.00453779
0.00482604
0.00512494
0.00542241
0.00570912
0.0059923
0.00627023
0.00647992
0.00644713
2.63832e-06
0.00047147
0.000306778
0.000439861
0.000371964
0.00052344
0.000510113
0.000645394
0.000669447
0.000800567
0.000864658
0.000983397
0.00107605
0.00119892
0.00130972
0.00143811
0.00156378
0.00170099
0.00184536
0.00199767
0.00215316
0.0023198
0.00249502
0.00268219
0.0028764
0.00307997
0.00329059
0.00351134
0.00374063
0.0039796
0.00422428
0.00446938
0.00470796
0.00494097
0.00517066
0.00538786
0.00556621
0.00566274
0.0056061
0.00527254
5.00333e-06
0.0004698
0.000307774
0.000438677
0.000372985
0.00052176
0.000510967
0.00064349
0.000669952
0.000798643
0.00086481
0.000981512
0.00107564
0.0011973
0.00130829
0.00143629
0.00156155
0.00169854
0.00184227
0.00199345
0.00214853
0.00231444
0.00248803
0.00267391
0.00286627
0.00306823
0.00327599
0.00349246
0.00371405
0.00394194
0.00417175
0.00439833
0.00461623
0.00482874
0.00503628
0.00522777
0.00537594
0.00544401
0.00537035
0.00504787
8.98846e-06
0.000465632
0.000310145
0.000434898
0.000376034
0.000516845
0.000514252
0.000638117
0.000673231
0.000792937
0.00086721
0.000975366
0.00107619
0.00119111
0.00130715
0.00143093
0.00155741
0.00169337
0.00183606
0.00198616
0.00214075
0.00230392
0.00247621
0.00265823
0.00284814
0.0030459
0.00325058
0.00346172
0.00367477
0.00388344
0.00408453
0.00428148
0.00447652
0.00466622
0.00483949
0.00497902
0.00506002
0.00504869
0.00489246
0.00449779
1.25894e-05
0.000461834
0.000312109
0.000432296
0.000378148
0.000513267
0.000515912
0.000634249
0.000674129
0.000789471
0.000867359
0.000972053
0.00107518
0.00118784
0.00130393
0.00142746
0.00155263
0.00168742
0.0018292
0.001978
0.00213114
0.00229207
0.00246177
0.00264047
0.00282648
0.00301887
0.00321555
0.00341502
0.00361407
0.00380887
0.00399374
0.00416956
0.00434142
0.00450659
0.00465225
0.00476082
0.00481062
0.00477358
0.00460375
0.00421381
1.75541e-05
0.000455751
0.000315579
0.000427267
0.000382215
0.000506697
0.000520083
0.000627514
0.000677519
0.000782556
0.000868572
0.000965952
0.00107293
0.00118474
0.00129947
0.00142129
0.00154577
0.00167937
0.00182007
0.00196685
0.00211833
0.00227615
0.0024425
0.00261651
0.00279708
0.00298284
0.00317137
0.00335798
0.00353642
0.0037062
0.00387159
0.00403532
0.00419459
0.00434185
0.00446518
0.00454956
0.00457529
0.00451449
0.00432147
0.00390947
2.24602e-05
0.00044939
0.00031878
0.000423087
0.000385458
0.000500966
0.000522234
0.000621971
0.000678337
0.000778306
0.000867754
0.000962802
0.00106929
0.0011802
0.0012938
0.00141439
0.00153783
0.00167007
0.00180892
0.00195343
0.00210237
0.00225668
0.00241836
0.00258656
0.00275938
0.00293462
0.00310899
0.00327966
0.00344234
0.0035959
0.00374648
0.00389687
0.00404194
0.0041729
0.00427905
0.00434774
0.00436146
0.00429384
0.0040988
0.00368583
2.87551e-05
0.000440574
0.000323605
0.000416542
0.000390751
0.000492619
0.000526955
0.000614034
0.000679678
0.000772527
0.000864791
0.000959988
0.00106429
0.00117393
0.00128666
0.00140621
0.00152784
0.00165849
0.001795
0.00193679
0.00208238
0.00223265
0.00238829
0.0025489
0.00271145
0.00287413
0.00303244
0.00318219
0.00332589
0.00346877
0.00361144
0.00375169
0.00388359
0.0040005
0.00409342
0.00415231
0.0041618
0.00409787
0.00391621
0.00352856
3.53068e-05
0.000430841
0.000328289
0.000410637
0.000394796
0.000484726
0.000528678
0.000608038
0.000679314
0.000769677
0.000861064
0.000955093
0.00105848
0.00116667
0.00127846
0.00139616
0.00151599
0.00164427
0.00177833
0.00191643
0.00205793
0.00220312
0.00235231
0.00250387
0.00265287
0.00279455
0.0029302
0.0030646
0.00319898
0.00333286
0.00346467
0.00359353
0.00371729
0.00383322
0.00393541
0.00401417
0.00405178
0.00401673
0.00384722
0.0034193
4.33024e-05
0.000418472
0.00033434
0.000402798
0.000401081
0.000475077
0.000532356
0.000600133
0.000675132
0.000766742
0.000857046
0.000948514
0.00105189
0.0011577
0.00126873
0.00138366
0.00150195
0.00162679
0.00175837
0.00189172
0.0020282
0.0021659
0.00230532
0.00244304
0.00257455
0.00270063
0.0028253
0.00294988
0.00307206
0.00318724
0.00329171
0.00338455
0.00346933
0.0035534
0.00364026
0.00372107
0.00379435
0.00388647
0.00406864
0.00448034
5.18572e-05
0.000404508
0.000340509
0.00039534
0.000404787
0.000466093
0.000531727
0.000597921
0.000671095
0.000761908
0.000851151
0.000941039
0.00104356
0.00114743
0.00125679
0.00136928
0.00148484
0.00160618
0.00173395
0.00186217
0.0019919
0.00212004
0.00224494
0.00236532
0.00248361
0.00260127
0.00271777
0.0028303
0.00293689
0.0030366
0.00313119
0.00322516
0.00332404
0.00342709
0.00352485
0.00361263
0.00369943
0.00381238
0.00400461
0.0043768
6.19051e-05
0.000387781
0.000346907
0.000387765
0.000410417
0.000458715
0.000525628
0.000594064
0.000667201
0.000756419
0.000843958
0.000932274
0.00103313
0.00113549
0.00124224
0.00135245
0.00146427
0.0015818
0.00170421
0.00182526
0.00194459
0.00205969
0.00217036
0.00227985
0.00239028
0.00250045
0.00260777
0.00270983
0.00280619
0.00289977
0.00299607
0.0030965
0.00319354
0.00328026
0.00335627
0.00342966
0.00351753
0.00364899
0.00387418
0.0042889
7.26318e-05
0.000369439
0.000353313
0.000379844
0.000410465
0.000455393
0.000519915
0.000588609
0.000661573
0.000750365
0.000835976
0.000921958
0.00102084
0.00112134
0.00122503
0.00133237
0.00143996
0.00155243
0.0016686
0.00177988
0.00188488
0.00198604
0.00208796
0.00219002
0.00228992
0.00238698
0.00248409
0.002586
0.00269248
0.00279727
0.00289433
0.00298073
0.0030565
0.00312433
0.00318937
0.00326158
0.00335707
0.00350101
0.00373742
0.00415413
8.48575e-05
0.000347711
0.000358294
0.000376881
0.000408237
0.000451548
0.000514184
0.000581152
0.000653202
0.000742574
0.000826526
0.000909876
0.00100634
0.00110464
0.00120478
0.00130838
0.00141089
0.00151575
0.00162237
0.00172119
0.00181521
0.00191017
0.00200787
0.00210618
0.00220301
0.00229687
0.00238658
0.00247192
0.00255346
0.0026348
0.00272083
0.00280994
0.00289319
0.00296582
0.00303211
0.00310375
0.00319808
0.00334081
0.00357546
0.00398859
9.76008e-05
0.000327034
0.000359763
0.000372935
0.000403238
0.00044659
0.000508985
0.000574928
0.000644824
0.000732621
0.000814719
0.000895408
0.000989232
0.00108497
0.001181
0.00127945
0.00137545
0.00147018
0.00156515
0.00165538
0.00174304
0.00183163
0.001921
0.00200831
0.00209256
0.00217605
0.00226248
0.00235449
0.00244774
0.0025359
0.00261474
0.00268338
0.00274344
0.00279893
0.00285607
0.00292422
0.00301786
0.00316057
0.00339503
0.00380841
0.000111318
0.000305845
0.000355924
0.000370538
0.000399739
0.000441557
0.000502683
0.000567015
0.000634354
0.000720473
0.000800552
0.000878195
0.000969036
0.00106159
0.00115257
0.00124376
0.00133106
0.00141554
0.00150218
0.00158706
0.00166829
0.00174743
0.0018262
0.00190483
0.00198505
0.00206993
0.00215946
0.00224983
0.00233513
0.00241087
0.0024751
0.00252917
0.00257662
0.00262278
0.00267444
0.00274055
0.00283438
0.00297817
0.00321364
0.00362738
0.000125271
0.000286428
0.000347596
0.000366999
0.000395379
0.000435479
0.000495041
0.000557664
0.000622371
0.000706396
0.000784101
0.000857902
0.000945083
0.00103361
0.00111797
0.00120007
0.00127813
0.0013558
0.00143643
0.00151549
0.00159112
0.00166446
0.00173818
0.00181153
0.00188304
0.00195365
0.00202604
0.00210341
0.00218326
0.00225776
0.00232064
0.00237123
0.00241382
0.00245504
0.00250254
0.00256568
0.00265765
0.00280044
0.00303545
0.0034491
0.000139222
0.000267492
0.000334725
0.000362341
0.00039128
0.000429262
0.000486576
0.000547174
0.000608601
0.000689993
0.000764735
0.000833564
0.000915897
0.000999303
0.00107572
0.0011491
0.00122134
0.00129387
0.00136807
0.00143834
0.0015029
0.00156359
0.00162597
0.0016945
0.00176978
0.0018487
0.0019263
0.0019992
0.00206466
0.0021213
0.00216899
0.00220938
0.00224559
0.00228265
0.00232722
0.00238812
0.0024783
0.00261961
0.00285342
0.00326636
0.000153091
0.00025115
0.000316265
0.000355261
0.000386459
0.000422422
0.000477103
0.000535184
0.000592574
0.000670449
0.000742192
0.000804949
0.000879926
0.000955999
0.00102558
0.00109414
0.00116223
0.00122848
0.00129513
0.00135812
0.00141683
0.00147301
0.00152955
0.00158872
0.00165037
0.00171546
0.00178467
0.00185454
0.00191837
0.00197154
0.00201337
0.00204689
0.0020771
0.00210978
0.00215138
0.00221025
0.00229895
0.00243913
0.00267212
0.00308462
0.000163689
0.000237468
0.000298406
0.000343554
0.000379249
0.000414206
0.000466382
0.000522391
0.000574895
0.000646927
0.000713359
0.00076862
0.000837404
0.000909979
0.00097503
0.00103647
0.00109799
0.00115729
0.00121592
0.00127082
0.00132045
0.00136742
0.00141516
0.00146775
0.00152663
0.00159172
0.00165883
0.00172238
0.00177748
0.00182182
0.00185606
0.00188351
0.00190903
0.0019382
0.00197731
0.00203448
0.00212205
0.00226146
0.00249395
0.00290623
0.000171129
0.00022824
0.000280015
0.00032587
0.000368291
0.000404303
0.000453864
0.000506855
0.000553692
0.000619477
0.000681799
0.000730354
0.000792013
0.000859652
0.000919097
0.000972303
0.00102578
0.00107833
0.00112933
0.00117672
0.00121949
0.00126115
0.00130474
0.00135288
0.00140635
0.00146519
0.00152624
0.00158288
0.00162988
0.00166581
0.00169281
0.00171483
0.00173663
0.00176335
0.00180088
0.00185699
0.00194377
0.00208254
0.00231451
0.00272652
0.000175601
0.000219069
0.000262683
0.000306569
0.000352814
0.000390685
0.000437927
0.000488453
0.000530208
0.000589347
0.000647436
0.000688668
0.00074143
0.000802822
0.000856663
0.000902005
0.000946819
0.000992558
0.00103676
0.00107708
0.00111283
0.00114821
0.00118787
0.00123489
0.00128902
0.0013456
0.00139833
0.00144278
0.0014776
0.00150387
0.00152423
0.00154219
0.00156171
0.0015872
0.00162404
0.00167969
0.00176606
0.00190443
0.00213608
0.00254799
0.000176825
0.000210059
0.000246688
0.000286706
0.000332205
0.00037188
0.000417824
0.00046653
0.000503646
0.000555704
0.000609424
0.00064332
0.000685821
0.000740167
0.000788335
0.00082631
0.000862412
0.000900562
0.000938399
0.000972812
0.00100342
0.00103464
0.00107211
0.00111841
0.00117073
0.00122138
0.00126397
0.00129648
0.00132033
0.00133835
0.00135352
0.00136871
0.00138701
0.00141209
0.00144877
0.00150422
0.00159029
0.00172831
0.00195965
0.00237148
0.000174617
0.000200345
0.000230798
0.000266108
0.000308924
0.000347858
0.000392252
0.000440149
0.00047341
0.000517978
0.00056741
0.000594874
0.000626212
0.000671997
0.000714071
0.00074498
0.00077253
0.000802691
0.000834568
0.000864596
0.00089206
0.000920943
0.000956913
0.0010017
0.00104941
0.00109152
0.00112308
0.00114453
0.00115927
0.00117108
0.0011827
0.00119634
0.00121411
0.001239
0.00127544
0.00133052
0.00141613
0.00155371
0.00178475
0.00219654
0.000168689
0.00018938
0.000214703
0.000245181
0.000284318
0.000319728
0.000359806
0.000406424
0.000437519
0.000474947
0.000520092
0.000543891
0.000564632
0.000600009
0.000635242
0.000659151
0.000678162
0.00069998
0.000725941
0.000752941
0.000779573
0.000808452
0.00084332
0.000883564
0.000923093
0.000955171
0.000976645
0.000989273
0.000997168
0.0010044
0.00101354
0.00102617
0.00104367
0.00106842
0.00110458
0.0011592
0.00124427
0.00138142
0.00161227
0.00202417
0.0001594
0.000175991
0.00019707
0.00022266
0.000258101
0.000290747
0.000324822
0.000366416
0.000394247
0.000423224
0.000462889
0.00048672
0.000501001
0.000525451
0.000553061
0.000570559
0.000581289
0.000594407
0.000613918
0.00063831
0.000665135
0.000694271
0.000725746
0.000758577
0.00078883
0.000812059
0.00082615
0.00083291
0.000836209
0.000840004
0.000846841
0.000858143
0.000875031
0.000899517
0.000935434
0.000989726
0.00107441
0.00121117
0.00144169
0.00185351
0.000146565
0.000159858
0.000177346
0.00019806
0.000228583
0.000257905
0.000285976
0.000321867
0.00034724
0.00036902
0.000400837
0.000422812
0.000432476
0.000447106
0.000467098
0.000480159
0.00048558
0.00049192
0.00050491
0.000524621
0.000548185
0.00057419
0.000601088
0.000627456
0.000650505
0.000667385
0.000676667
0.000679798
0.000680061
0.000681125
0.00068566
0.000695282
0.000711157
0.000735129
0.000770811
0.000824927
0.000909442
0.0010461
0.00127675
0.00168898
0.000129815
0.000140346
0.000154625
0.000170748
0.000195842
0.000221573
0.000244177
0.000273668
0.000296239
0.00031194
0.000334727
0.00035223
0.000357774
0.000363099
0.000373436
0.000380581
0.00038083
0.000380679
0.000387063
0.00040236
0.000424121
0.000448565
0.000471658
0.00049156
0.000507215
0.000517749
0.000522742
0.000523258
0.000521705
0.000521034
0.000523761
0.000531658
0.00054613
0.000569091
0.000604096
0.000657744
0.000741954
0.000878445
0.00110911
0.00152163
0.000110001
0.000117405
0.0001283
0.000140097
0.000159473
0.00018128
0.000199096
0.000221578
0.000240215
0.000251646
0.000266825
0.00027974
0.000283363
0.000284022
0.000287867
0.000290778
0.000288235
0.000284026
0.000284442
0.000293174
0.00030916
0.000328394
0.000345837
0.000358963
0.000367405
0.00037164
0.000372354
0.000370611
0.000368081
0.000366791
0.000368683
0.000375399
0.000388539
0.000410238
0.000444158
0.000496844
0.000580063
0.000715486
0.000945052
0.0013565
8.49426e-05
9.04251e-05
9.86596e-05
0.000106853
0.00012048
0.00013749
0.0001503
0.00016535
0.000178254
0.000184435
0.000191139
0.000195675
0.000192367
0.000184732
0.000178486
0.000172859
0.000164857
0.00015736
0.000156308
0.000165254
0.000181378
0.000198098
0.000210782
0.000218379
0.000221855
0.000222305
0.000220416
0.000216888
0.000213085
0.000210902
0.000212437
0.000219483
0.000233716
0.000257244
0.000293592
0.000349108
0.000435372
0.000573878
0.000806475
0.00122096
5.8261e-05
5.79381e-05
6.2562e-05
6.83787e-05
7.85117e-05
9.12574e-05
0.000100442
0.000109596
0.000117851
0.000121303
0.000125689
0.000129124
0.000127412
0.00012187
0.00011692
0.000111765
0.000102876
8.99318e-05
7.61777e-05
6.43562e-05
5.52885e-05
4.9293e-05
4.81044e-05
5.36377e-05
6.40557e-05
7.41053e-05
7.88176e-05
7.60531e-05
6.69663e-05
5.46599e-05
4.2897e-05
3.51362e-05
3.4443e-05
4.38459e-05
6.74201e-05
0.000111753
0.000188562
0.000319469
0.000546625
0.000958388
2.32494e-05
2.4692e-05
2.66267e-05
2.77029e-05
3.0284e-05
3.61833e-05
3.90445e-05
4.14487e-05
4.27355e-05
3.86461e-05
3.31367e-05
2.60536e-05
1.37227e-05
-3.19732e-06
-2.01598e-05
-3.5191e-05
-4.96907e-05
-6.32863e-05
-7.21795e-05
-7.23236e-05
-6.39081e-05
-5.26927e-05
-4.48578e-05
-4.30353e-05
-4.62494e-05
-5.22488e-05
-5.89999e-05
-6.51262e-05
-6.95149e-05
-7.10273e-05
-6.83776e-05
-6.01787e-05
-4.47953e-05
-1.99553e-05
1.80672e-05
7.57842e-05
0.000164909
0.000307083
0.000544371
0.000964871
-2.18446e-05
-1.58078e-05
-1.13987e-05
-1.00974e-05
-1.14667e-05
-1.21065e-05
-1.49301e-05
-1.68229e-05
-1.67145e-05
-1.85973e-05
-2.13057e-05
-2.36425e-05
-2.88796e-05
-3.76447e-05
-4.73632e-05
-5.58085e-05
-6.469e-05
-7.56657e-05
-8.84686e-05
-0.000101205
-0.000113272
-0.000125486
-0.00013931
-0.000155357
-0.00017358
-0.000193532
-0.000215147
-0.000238733
-0.000264901
-0.000294195
-0.000327177
-0.000364568
-0.000407705
-0.000458963
-0.000522486
-0.000605282
-0.000719525
-0.000887208
-0.00115074
-0.00159865
-5.71731e-05
-5.85305e-05
-6.29651e-05
-6.91304e-05
-7.69098e-05
-8.24659e-05
-8.92717e-05
-9.84665e-05
-0.000108064
-0.000121617
-0.000138485
-0.00015643
-0.000176272
-0.000198803
-0.000221743
-0.000241101
-0.000254896
-0.000263002
-0.000266304
-0.000266774
-0.000266839
-0.000268964
-0.000274741
-0.000283944
-0.000294675
-0.000304523
-0.000311698
-0.000315336
-0.000315248
-0.00031142
-0.000303587
-0.000290956
-0.000272039
-0.000244366
-0.00020391
-0.000143908
-5.25427e-05
9.18119e-05
0.00033111
0.000753312
-0.000104962
-0.000105812
-0.000110151
-0.000115557
-0.000121945
-0.000127795
-0.000134039
-0.000142117
-0.000149705
-0.000158403
-0.000168829
-0.000179122
-0.000189512
-0.000201535
-0.000215769
-0.000230927
-0.000246454
-0.00026303
-0.000281657
-0.000302437
-0.000324891
-0.000348707
-0.000374132
-0.000401677
-0.000431697
-0.000464047
-0.000498355
-0.000534346
-0.000572013
-0.000611641
-0.000653785
-0.000699338
-0.000749727
-0.000807318
-0.000876085
-0.000962811
-0.00107938
-0.00124746
-0.00150903
-0.00195204
-0.000156705
-0.000160868
-0.000171185
-0.000185091
-0.000199893
-0.00021525
-0.000231826
-0.000250599
-0.000270191
-0.00029112
-0.000314814
-0.000339419
-0.000363098
-0.000384889
-0.000404148
-0.000418946
-0.000427681
-0.000431789
-0.000435148
-0.000441102
-0.000450651
-0.000462787
-0.000475725
-0.000487815
-0.000497932
-0.000505453
-0.000510037
-0.000511515
-0.000509781
-0.000504684
-0.000495852
-0.000482509
-0.000463226
-0.000435578
-0.000395522
-0.000336236
-0.000245845
-0.000102695
0.000135163
0.00055568
-0.000207444
-0.000209904
-0.000216579
-0.000226856
-0.000237456
-0.000247825
-0.00025979
-0.000273459
-0.000287434
-0.000301049
-0.000316106
-0.000332396
-0.000348935
-0.000365404
-0.000382734
-0.000401586
-0.000421883
-0.000443338
-0.000465965
-0.000490077
-0.000515911
-0.000543544
-0.000572938
-0.000604112
-0.000636962
-0.000671338
-0.000707076
-0.000744083
-0.000782388
-0.000822227
-0.000864108
-0.000908934
-0.000958193
-0.00101433
-0.00108136
-0.00116611
-0.00128046
-0.00144608
-0.00170495
-0.00214505
-0.000274927
-0.0002818
-0.000295281
-0.000314755
-0.000337004
-0.000359214
-0.000383476
-0.000409701
-0.000436554
-0.000462063
-0.00048629
-0.000508507
-0.000526725
-0.000539419
-0.000547448
-0.000554089
-0.000562004
-0.000572202
-0.000584244
-0.000597237
-0.000610204
-0.000622317
-0.000632855
-0.000641283
-0.000647372
-0.000651124
-0.000652596
-0.000651805
-0.00064864
-0.000642807
-0.00063375
-0.000620534
-0.000601632
-0.000574576
-0.000535306
-0.000476999
-0.000387775
-0.000245979
-9.66177e-06
0.00040913
-0.000322229
-0.000324225
-0.000329609
-0.000338714
-0.000351847
-0.000366094
-0.000382274
-0.000400371
-0.000420573
-0.000442515
-0.000465692
-0.000488892
-0.000510261
-0.000528874
-0.000545055
-0.000559944
-0.000574735
-0.000590235
-0.0006069
-0.000624914
-0.000644356
-0.000665226
-0.000687567
-0.000711455
-0.000736905
-0.000763857
-0.000792271
-0.000822142
-0.000853601
-0.000886947
-0.000922756
-0.000961973
-0.00100614
-0.00105771
-0.00112075
-0.00120208
-0.00131361
-0.00147701
-0.00173435
-0.00217368
-0.000408709
-0.000415685
-0.000430239
-0.000450879
-0.000477001
-0.000505934
-0.000536523
-0.000566149
-0.000593719
-0.000618077
-0.000638802
-0.000655671
-0.000669198
-0.000680093
-0.000688998
-0.000696182
-0.000701848
-0.000706154
-0.00070935
-0.00071154
-0.000712743
-0.000712808
-0.000711612
-0.000709016
-0.000705008
-0.000699613
-0.000692879
-0.000684749
-0.000675069
-0.000663505
-0.000649508
-0.000632152
-0.000609945
-0.000580438
-0.000539604
-0.000480645
-0.000391731
-0.000251283
-1.75027e-05
0.000397321
0.00620903
0.00628308
0.00656525
0.00674578
0.00674591
0.00657036
0.00627816
0.00593971
0.00560727
0.0053094
0.00505719
0.00485064
0.00468209
0.00454059
0.00441549
0.00429825
0.00418303
0.00406644
0.00394707
0.00382484
0.00370064
0.00357567
0.0034513
0.00332852
0.00320803
0.00308997
0.00297415
0.00285993
0.00274664
0.00263337
0.00251941
0.00240405
0.00228672
0.0021671
0.00204476
0.00191966
0.00179121
0.00165928
0.00152276
0.00138126
0.0012333
0.00107806
0.000913828
0.000738826
0.000551463
0.000348607
0.000128943
-0.000111778
-0.000374881
-0.000665311
-0.000988263
-0.00134952
-0.00175347
-0.00221147
-0.00274345
-0.00335545
-0.00404053
-0.0047824
-0.00555671
-0.00629397
-0.0068806
-0.00721198
-0.00723431
-0.00697582
-0.00655815
-0.00611549
-0.00572911
-0.00542251
-0.0052284
-0.00513873
-0.00510023
-0.00511382
-0.00516706
-0.00523035
-0.0053054
-0.00539094
-0.00547963
-0.00556899
-0.00566644
-0.00576706
-0.00586482
-0.00596845
-0.00607247
-0.00617526
-0.00627968
-0.00637893
-0.00647777
-0.0065741
-0.00666113
-0.00674182
-0.00682246
-0.0068927
-0.0069553
-0.00701486
-0.00707178
-0.00712006
-0.007169
-0.00721521
-0.00725849
-0.00729388
0.0049023
0.00497673
0.00542994
0.00587259
0.00613962
0.00619125
0.00605206
0.00579395
0.00549338
0.00520393
0.00495261
0.00474802
0.00458657
0.00445674
0.00434499
0.00423995
0.00413425
0.00402421
0.00390894
0.0037892
0.0036667
0.0035432
0.00342031
0.00329903
0.00318003
0.00306329
0.00294865
0.00283542
0.00272297
0.0026104
0.00249701
0.00238208
0.00226506
0.00214561
0.00202333
0.00189833
0.00177001
0.00163831
0.001502
0.0013608
0.00121305
0.00105807
0.000894029
0.00071927
0.000532202
0.000329702
0.00011057
-0.000129536
-0.000391828
-0.000681242
-0.00100289
-0.00136286
-0.00176483
-0.00221979
-0.00274752
-0.00335385
-0.00403121
-0.00476427
-0.00553101
-0.00626182
-0.0068445
-0.00717695
-0.00720447
-0.00695254
-0.00654032
-0.00610189
-0.00571879
-0.00541382
-0.00522069
-0.00513213
-0.0050941
-0.00510795
-0.00516181
-0.00522557
-0.00530094
-0.00538689
-0.00547613
-0.00556589
-0.00566368
-0.00576467
-0.00586278
-0.00596669
-0.00607097
-0.00617399
-0.0062786
-0.00637802
-0.006477
-0.00657347
-0.00666061
-0.00674139
-0.00682211
-0.00689242
-0.00695507
-0.00701467
-0.00707162
-0.00711994
-0.00716889
-0.00721513
-0.00725843
-0.00729383
0.00471149
0.00481702
0.00531191
0.00579928
0.00610706
0.00619143
0.00607273
0.00582157
0.00551726
0.00521821
0.00495567
0.00474089
0.00457226
0.00443888
0.0043264
0.00422211
0.00411732
0.00400753
0.00389155
0.00377025
0.00364566
0.00352002
0.00339525
0.00327253
0.00315252
0.00303515
0.00292009
0.00280655
0.00269382
0.00258095
0.00246724
0.00235201
0.00223476
0.00211519
0.00199289
0.00186765
0.00173882
0.00160634
0.00146924
0.0013272
0.00117878
0.00102312
0.000858583
0.0006834
0.000496147
0.000293712
7.49065e-05
-0.000164451
-0.000425875
-0.000714086
-0.00103381
-0.00139122
-0.0017901
-0.00223994
-0.00275874
-0.00335234
-0.00401329
-0.00472332
-0.00546086
-0.00616347
-0.00672891
-0.00706356
-0.00711263
-0.00688976
-0.00650371
-0.006086
-0.00571709
-0.005419
-0.00522784
-0.00513909
-0.00510005
-0.00511261
-0.00516491
-0.00522743
-0.00530213
-0.00538746
-0.00547601
-0.00556533
-0.00566288
-0.0057636
-0.00586145
-0.00596525
-0.00606947
-0.00617246
-0.00627712
-0.00637659
-0.00647567
-0.00657226
-0.00665953
-0.00674046
-0.00682133
-0.00689178
-0.00695455
-0.00701428
-0.00707133
-0.00711973
-0.00716874
-0.00721504
-0.0072584
-0.00729381
0.00412484
0.00420962
0.00469921
0.00520713
0.00555824
0.00570416
0.00565565
0.00547147
0.00522317
0.00496714
0.00473618
0.00454395
0.00439204
0.00427291
0.00417446
0.00408457
0.0039941
0.00389769
0.00379337
0.00368156
0.00356436
0.00344439
0.00332419
0.00320548
0.00308925
0.00297559
0.00286408
0.00275382
0.00264392
0.00253342
0.00242161
0.00230789
0.00219182
0.00207321
0.00195162
0.00182708
0.00169887
0.00156702
0.00143043
0.00128884
0.00114077
0.000985345
0.000821038
0.000645999
0.000459014
0.00025691
3.86262e-05
-0.000199946
-0.000460457
-0.000747369
-0.00106482
-0.00141941
-0.00181478
-0.00225865
-0.0027673
-0.00334575
-0.00398651
-0.00467101
-0.00537958
-0.00605478
-0.00660233
-0.00693696
-0.00700587
-0.00681302
-0.00645409
-0.00605672
-0.00570225
-0.00541235
-0.00522362
-0.00513579
-0.00509692
-0.00510868
-0.00516042
-0.0052227
-0.00529704
-0.00538232
-0.00547124
-0.00556083
-0.00565848
-0.00575948
-0.0058577
-0.00596171
-0.00606612
-0.00616934
-0.00627419
-0.00637385
-0.00647311
-0.0065699
-0.00665739
-0.00673852
-0.0068196
-0.00689026
-0.00695323
-0.00701315
-0.00707038
-0.00711897
-0.00716811
-0.00721459
-0.00725809
-0.00729359
0.00385967
0.00396296
0.00447759
0.00501359
0.00539365
0.00556808
0.00554574
0.00538337
0.00515151
0.00490676
0.00468292
0.00449482
0.00434528
0.00422816
0.00413225
0.00404568
0.00395894
0.0038661
0.00376466
0.00365471
0.00353827
0.0034182
0.0032974
0.00317803
0.00306132
0.00294747
0.00283601
0.00272586
0.00261595
0.00250522
0.00239293
0.00227857
0.0021618
0.0020425
0.00192035
0.0017953
0.00166673
0.00153444
0.00139741
0.00125521
0.00110651
0.00095041
0.000785486
0.000609956
0.000422604
0.000220439
2.28395e-06
-0.000235712
-0.000495374
-0.000780939
-0.00109627
-0.0014478
-0.00183917
-0.00227646
-0.00277414
-0.00333663
-0.00395655
-0.00461537
-0.00529378
-0.00593858
-0.00646455
-0.00679532
-0.00688176
-0.0067207
-0.00639424
-0.00602264
-0.00568692
-0.00540933
-0.00522541
-0.00513907
-0.00510028
-0.00511104
-0.00516135
-0.00522235
-0.00529584
-0.00538049
-0.00546878
-0.00555792
-0.00565526
-0.00575599
-0.00585398
-0.00595786
-0.00606219
-0.00616542
-0.00627033
-0.00637001
-0.00646932
-0.00656626
-0.00665397
-0.00673536
-0.0068167
-0.00688768
-0.00695096
-0.00701122
-0.00706874
-0.00711766
-0.00716703
-0.00721378
-0.00725751
-0.00729317
0.00354022
0.00363488
0.00414482
0.00468142
0.00506705
0.00525144
0.00524233
0.00509512
0.00487945
0.00465145
0.00444458
0.00427332
0.00414019
0.00403864
0.00395714
0.00388364
0.00380865
0.00372634
0.00363436
0.00353296
0.00342432
0.00331146
0.00319739
0.00308429
0.0029734
0.00286493
0.00275835
0.00265257
0.00254648
0.00243905
0.0023296
0.00221772
0.00210314
0.00198584
0.00186551
0.00174212
0.00161503
0.00148402
0.0013481
0.0012068
0.00105891
0.000903442
0.000739193
0.000564299
0.000377677
0.000176414
-4.06872e-05
-0.000277313
-0.000535257
-0.000818827
-0.00113125
-0.00147873
-0.00186508
-0.00229474
-0.00278064
-0.00332609
-0.00392456
-0.00455702
-0.00520454
-0.00581906
-0.00632428
-0.00665202
-0.0067562
-0.00662806
-0.00633453
-0.00598795
-0.00567049
-0.00540453
-0.00522432
-0.00513806
-0.00509912
-0.00510861
-0.00515769
-0.00521797
-0.00529073
-0.00537493
-0.00546322
-0.00555241
-0.00564965
-0.00575043
-0.00584863
-0.00595259
-0.00605702
-0.00616037
-0.00626539
-0.00636522
-0.00646466
-0.00656179
-0.00664976
-0.00673143
-0.00681302
-0.00688435
-0.00694796
-0.0070086
-0.00706644
-0.00711578
-0.0071654
-0.00721253
-0.00725656
-0.00729246
0.00331411
0.00340865
0.00391759
0.0044496
0.00482865
0.00500678
0.00499481
0.00485101
0.00464604
0.00443523
0.00425047
0.00410394
0.00399556
0.0039161
0.00385231
0.0037918
0.00372579
0.00364968
0.00356228
0.00346494
0.00336055
0.00325235
0.00314315
0.00303476
0.00292803
0.0028229
0.00271875
0.00261456
0.00250941
0.00240248
0.00229329
0.00218154
0.00206705
0.00194979
0.00182947
0.00170601
0.00157877
0.00144753
0.0013113
0.00116963
0.00102131
0.000865433
0.000700777
0.000525616
0.000338838
0.000137713
-7.89983e-05
-0.000314814
-0.00057149
-0.000853284
-0.00116293
-0.0015063
-0.00188729
-0.00230911
-0.00278276
-0.0033109
-0.00388769
-0.00449365
-0.00511085
-0.00569583
-0.00618077
-0.00650439
-0.00662371
-0.00652643
-0.00626587
-0.00594598
-0.00564852
-0.00539573
-0.00522104
-0.00513664
-0.0050983
-0.00510756
-0.00515594
-0.00521538
-0.00528748
-0.00537129
-0.00545924
-0.00554813
-0.00564514
-0.00574574
-0.0058438
-0.00594764
-0.006052
-0.00615532
-0.00626035
-0.00636023
-0.00645971
-0.00655697
-0.00664515
-0.00672709
-0.00680892
-0.00688062
-0.00694457
-0.00700562
-0.00706381
-0.00711363
-0.00716354
-0.00721109
-0.00725543
-0.00729162
0.003181
0.00329744
0.00382196
0.00434756
0.00470092
0.00483911
0.00478406
0.00460784
0.00438842
0.0041799
0.00400832
0.00388131
0.00379399
0.00373308
0.00368329
0.00363223
0.00357236
0.00350065
0.00341735
0.00332492
0.00322677
0.00312599
0.00302486
0.00292453
0.00282527
0.00272662
0.00262784
0.00252802
0.0024265
0.00232275
0.00221648
0.00210753
0.00199576
0.00188109
0.00176321
0.00164196
0.00151671
0.0013872
0.00125251
0.00111218
0.000965097
0.000810338
0.000646769
0.000472727
0.00028713
8.73794e-05
-0.000127703
-0.000361594
-0.000615828
-0.000894671
-0.0012005
-0.00153852
-0.00191293
-0.0023256
-0.00278604
-0.003296
-0.00385028
-0.00442957
-0.00501655
-0.00557257
-0.00603703
-0.0063556
-0.00648844
-0.00642159
-0.00619572
-0.00590362
-0.00562639
-0.00538742
-0.00521866
-0.00513559
-0.00509772
-0.00510603
-0.00515321
-0.00521181
-0.00528294
-0.00536598
-0.00545363
-0.0055424
-0.00563918
-0.00573967
-0.00583778
-0.00594163
-0.00604602
-0.00614944
-0.00625456
-0.00635456
-0.00645413
-0.00655158
-0.00664003
-0.00672227
-0.00680437
-0.00687649
-0.00694081
-0.00700232
-0.00706087
-0.00711121
-0.00716144
-0.00720943
-0.00725411
-0.00729063
0.00299632
0.00304971
0.00350011
0.00396053
0.00427255
0.00440162
0.00437056
0.00424132
0.00407772
0.00392275
0.00379631
0.00370272
0.00363569
0.00358352
0.00353529
0.00348367
0.00342474
0.00335725
0.0032818
0.00320007
0.00311404
0.0030254
0.0029353
0.00284424
0.00275229
0.00265914
0.00256443
0.00246769
0.00236866
0.00226707
0.00216278
0.0020557
0.00194561
0.00183245
0.00171582
0.0015956
0.00147111
0.00134218
0.00120787
0.00106781
0.000920908
0.000766303
0.000602919
0.000429117
0.000243936
4.48065e-05
-0.000169278
-0.000401799
-0.000654035
-0.000930204
-0.00123239
-0.00156509
-0.00193262
-0.00233599
-0.00278307
-0.00327469
-0.00380646
-0.00435939
-0.0049169
-0.00544469
-0.00588893
-0.00620196
-0.00634687
-0.00630908
-0.00611759
-0.00585385
-0.00559785
-0.00537385
-0.00521233
-0.00513162
-0.00509468
-0.00510268
-0.00514922
-0.0052072
-0.00527771
-0.00536041
-0.00544788
-0.00553653
-0.00563322
-0.00573369
-0.0058318
-0.00593561
-0.00603999
-0.00614344
-0.00624862
-0.00634871
-0.00644835
-0.00654596
-0.00663466
-0.0067172
-0.00679958
-0.00687211
-0.00693682
-0.00699881
-0.00705775
-0.00710863
-0.0071592
-0.00720767
-0.0072527
-0.00728957
0.00487475
0.00479462
0.00430708
0.00380161