/*--------------------------------*- C++ -*----------------------------------*\
| =========                 |                                                 |
| \\      /  F ield         | OpenFOAM: The Open Source CFD Toolbox           |
|  \\    /   O peration     | Version:  2312                                  |
|   \\  /    A nd           | Website:  www.openfoam.com                      |
|    \\/     M anipulation  |                                                 |
\*---------------------------------------------------------------------------*/
FoamFile
{
    version     2.0;
    format      ascii;
    arch        "LSB;label=32;scalar=64";
    class       surfaceScalarField;
    location    "0.75";
    object      phi;
}
// * * * * * * * * * * * * * * * * * * * * * * * * * * * * * * * * * * * * * //

dimensions      [0 3 -1 0 0 0 0];

oriented        oriented;

internalField   nonuniform List<scalar> 
11020
(
3.87757e-06
-6.65035e-08
3.87748e-06
5.22437e-08
3.87753e-06
-4.37697e-08
3.87758e-06
3.65751e-08
3.87751e-06
-3.15578e-08
3.87775e-06
2.42699e-08
3.87735e-06
-2.10861e-08
3.8776e-06
1.69365e-08
3.87683e-06
-1.15261e-08
3.877e-06
1.25843e-08
3.87606e-06
-6.26567e-09
3.87616e-06
9.03324e-09
3.87528e-06
-4.06841e-09
3.8753e-06
5.81599e-09
3.87446e-06
-2.39107e-09
3.87435e-06
4.35369e-09
3.87355e-06
-8.13608e-10
3.87331e-06
4.04425e-09
3.87261e-06
4.05012e-10
3.8723e-06
3.90761e-09
3.8716e-06
1.0923e-09
3.87119e-06
3.71332e-09
3.87047e-06
1.63327e-09
3.86992e-06
3.68774e-09
3.86914e-06
2.25623e-09
3.86847e-06
3.80271e-09
3.86764e-06
2.78753e-09
3.86688e-06
3.90608e-09
3.86598e-06
3.16962e-09
3.86509e-06
3.99901e-09
3.86402e-06
3.55424e-09
3.86285e-06
4.35239e-09
3.86144e-06
4.3819e-09
3.85986e-06
5.44573e-09
3.85804e-06
5.93941e-09
3.85605e-06
7.09272e-09
3.85384e-06
7.74648e-09
3.8514e-06
9.02983e-09
3.84867e-06
1.01796e-08
1.194e-08
3.84569e-06
4.183e-06
-6.36457e-08
4.18773e-06
4.7516e-08
4.18398e-06
-4.00182e-08
4.1879e-06
3.26489e-08
4.18444e-06
-2.80957e-08
4.18803e-06
2.06801e-08
4.18471e-06
-1.77622e-08
4.18766e-06
1.3987e-08
4.18456e-06
-8.43248e-09
4.18688e-06
1.02715e-08
4.18398e-06
-3.36643e-09
4.18575e-06
7.25694e-09
4.18336e-06
-1.67216e-09
4.18458e-06
4.59641e-09
4.18258e-06
-3.97061e-10
4.1833e-06
3.63536e-09
4.18167e-06
8.12993e-10
4.18207e-06
3.64602e-09
4.1808e-06
1.67772e-09
4.18096e-06
3.74628e-09
4.17979e-06
2.268e-09
4.17971e-06
3.78477e-09
4.17858e-06
2.76298e-09
4.1783e-06
3.97757e-09
4.1772e-06
3.34914e-09
4.17671e-06
4.29418e-09
4.17561e-06
3.89081e-09
4.17491e-06
4.60632e-09
4.1737e-06
4.37565e-09
4.17271e-06
4.99079e-09
4.17126e-06
5.00688e-09
4.16989e-06
5.72105e-09
4.1682e-06
6.06854e-09
4.16672e-06
6.92578e-09
4.16518e-06
7.48437e-09
4.16389e-06
8.37743e-09
4.16262e-06
9.01986e-09
4.1617e-06
9.95313e-09
4.16109e-06
1.07843e-08
1.18379e-08
4.16119e-06
4.51651e-06
-6.0095e-08
4.52083e-06
4.3194e-08
4.517e-06
-3.61867e-08
4.52032e-06
2.93271e-08
4.51688e-06
-2.46569e-08
4.51992e-06
1.76426e-08
4.51691e-06
-1.47496e-08
4.51929e-06
1.16025e-08
4.51674e-06
-5.87856e-09
4.51855e-06
8.46518e-09
4.51615e-06
-9.7298e-10
4.51739e-06
6.02018e-09
4.5154e-06
3.14917e-10
4.51614e-06
3.86003e-09
4.51445e-06
1.29105e-09
4.51477e-06
3.31505e-09
4.51335e-06
2.23827e-09
4.51345e-06
3.54094e-09
4.51232e-06
2.80688e-09
4.5123e-06
3.76627e-09
4.51129e-06
3.27632e-09
4.51108e-06
3.99833e-09
4.51007e-06
3.77789e-09
4.50965e-06
4.3972e-09
4.50862e-06
4.37897e-09
4.50801e-06
4.90355e-09
4.50693e-06
4.96641e-09
4.50616e-06
5.37491e-09
4.50501e-06
5.52486e-09
4.50394e-06
6.06763e-09
4.50245e-06
6.49015e-09
4.50099e-06
7.18845e-09
4.4993e-06
7.7578e-09
4.49781e-06
8.40873e-09
4.49636e-06
8.93311e-09
4.49518e-06
9.56245e-09
4.49405e-06
1.01492e-08
4.49319e-06
1.08131e-08
4.49257e-06
1.14025e-08
1.19577e-08
4.49245e-06
4.87778e-06
-5.69223e-08
4.88114e-06
3.98331e-08
4.87782e-06
-3.28679e-08
4.88056e-06
2.65868e-08
4.87727e-06
-2.13669e-08
4.87968e-06
1.52279e-08
4.87696e-06
-1.20271e-08
4.8789e-06
9.65829e-09
4.87667e-06
-3.64779e-09
4.87809e-06
7.04817e-09
4.87618e-06
9.40871e-10
4.8769e-06
5.29866e-09
4.87532e-06
1.89517e-09
4.87543e-06
3.75089e-09
4.87436e-06
2.35623e-09
4.87409e-06
3.58178e-09
4.87322e-06
3.11323e-09
4.87278e-06
3.98284e-09
4.87193e-06
3.64977e-09
4.87142e-06
4.28118e-09
4.87061e-06
4.08728e-09
4.87e-06
4.60829e-09
4.86916e-06
4.61508e-09
4.86843e-06
5.12439e-09
4.86754e-06
5.27812e-09
4.86666e-06
5.77537e-09
4.86558e-06
6.04764e-09
4.8644e-06
6.5567e-09
4.86302e-06
6.90824e-09
4.86166e-06
7.42304e-09
4.86025e-06
7.89784e-09
4.8589e-06
8.53963e-09
4.85758e-06
9.07738e-09
4.85635e-06
9.63783e-09
4.85522e-06
1.00691e-08
4.85426e-06
1.05172e-08
4.85351e-06
1.08987e-08
4.85305e-06
1.12804e-08
4.85288e-06
1.15698e-08
1.1776e-08
4.85306e-06
5.26751e-06
-5.37828e-08
5.27066e-06
3.66811e-08
5.26736e-06
-2.95696e-08
5.27027e-06
2.36771e-08
5.26682e-06
-1.79143e-08
5.26908e-06
1.29695e-08
5.2663e-06
-9.24649e-09
5.26824e-06
7.71717e-09
5.26592e-06
-1.33272e-09
5.26724e-06
5.73444e-09
5.26545e-06
2.72845e-09
5.26611e-06
4.63762e-09
5.26456e-06
3.44529e-09
5.26448e-06
3.82735e-09
5.26354e-06
3.29617e-09
5.26316e-06
3.96212e-09
5.26227e-06
4.00224e-09
5.26177e-06
4.48307e-09
5.26089e-06
4.52981e-09
5.26028e-06
4.89783e-09
5.25937e-06
4.99221e-09
5.25863e-06
5.34668e-09
5.25769e-06
5.55859e-09
5.25684e-06
5.97726e-09
5.25583e-06
6.28579e-09
5.25488e-06
6.72627e-09
5.25384e-06
7.08948e-09
5.25278e-06
7.61291e-09
5.25151e-06
8.17762e-09
5.25007e-06
8.86715e-09
5.2485e-06
9.46779e-09
5.24702e-06
1.00196e-08
5.24567e-06
1.04191e-08
5.24454e-06
1.07732e-08
5.24356e-06
1.10483e-08
5.24277e-06
1.1311e-08
5.24214e-06
1.15233e-08
5.24174e-06
1.16784e-08
5.24158e-06
1.17354e-08
1.17208e-08
5.24163e-06
5.6882e-06
-5.05201e-08
5.6914e-06
3.34743e-08
5.68792e-06
-2.6089e-08
5.69107e-06
2.05319e-08
5.68758e-06
-1.44278e-08
5.68968e-06
1.08678e-08
5.68692e-06
-6.48135e-09
5.68874e-06
5.8956e-09
5.68658e-06
8.29989e-10
5.68748e-06
4.83159e-09
5.68612e-06
4.09106e-09
5.68637e-06
4.38444e-09
5.68543e-06
4.38112e-09
5.68487e-06
4.39577e-09
5.68394e-06
4.21887e-09
5.68341e-06
4.49172e-09
5.6826e-06
4.81628e-09
5.682e-06
5.08039e-09
5.68117e-06
5.359e-09
5.68042e-06
5.64659e-09
5.6795e-06
5.91475e-09
5.67862e-06
6.22642e-09
5.67762e-06
6.55693e-09
5.67665e-06
6.95437e-09
5.67557e-06
7.36662e-09
5.67439e-06
7.89823e-09
5.67306e-06
8.42217e-09
5.67164e-06
9.03161e-09
5.67023e-06
9.58658e-09
5.66888e-06
1.02174e-08
5.66758e-06
1.07715e-08
5.66635e-06
1.1246e-08
5.66519e-06
1.15803e-08
5.66414e-06
1.18263e-08
5.66322e-06
1.19712e-08
5.66247e-06
1.20529e-08
5.66195e-06
1.20481e-08
5.66167e-06
1.19592e-08
5.66162e-06
1.17815e-08
1.15166e-08
5.66183e-06
6.14244e-06
-4.70914e-08
6.14581e-06
3.01009e-08
6.14206e-06
-2.23362e-08
6.14536e-06
1.72331e-08
6.1419e-06
-1.09663e-08
6.14397e-06
8.79454e-09
6.14112e-06
-3.63139e-09
6.14285e-06
4.17119e-09
6.14077e-06
2.90233e-09
6.14145e-06
4.15578e-09
6.14028e-06
5.25882e-09
6.14032e-06
4.34362e-09
6.1395e-06
5.20853e-09
6.13889e-06
5.00259e-09
6.13788e-06
5.22502e-09
6.13728e-06
5.0911e-09
6.13643e-06
5.66749e-09
6.13579e-06
5.72798e-09
6.13492e-06
6.22578e-09
6.13412e-06
6.44167e-09
6.13315e-06
6.88948e-09
6.13222e-06
7.15803e-09
6.13115e-06
7.62764e-09
6.13009e-06
8.00654e-09
6.12894e-06
8.5231e-09
6.12783e-06
9.00791e-09
6.12659e-06
9.66484e-09
6.1252e-06
1.04206e-08
6.12362e-06
1.11606e-08
6.1221e-06
1.17414e-08
6.12073e-06
1.21404e-08
6.11954e-06
1.24377e-08
6.11845e-06
1.26635e-08
6.11746e-06
1.28209e-08
6.11657e-06
1.28611e-08
6.11585e-06
1.27772e-08
6.1153e-06
1.25944e-08
6.11497e-06
1.22845e-08
6.11488e-06
1.18777e-08
1.12659e-08
6.11513e-06
6.63297e-06
-4.35012e-08
6.63652e-06
2.65489e-08
6.63258e-06
-1.83901e-08
6.63581e-06
1.40019e-08
6.63251e-06
-7.66899e-09
6.63449e-06
6.81796e-09
6.63178e-06
-9.18945e-10
6.63306e-06
2.88226e-09
6.63141e-06
4.55879e-09
6.6316e-06
3.96244e-09
6.63086e-06
6.00313e-09
6.63066e-06
4.54425e-09
6.6297e-06
6.16946e-09
6.62919e-06
5.51249e-09
6.62809e-06
6.31765e-09
6.62749e-06
5.69212e-09
6.6265e-06
6.66243e-09
6.62584e-06
6.38671e-09
6.62483e-06
7.23326e-09
6.62405e-06
7.22559e-09
6.62295e-06
7.98302e-09
6.62204e-06
8.07381e-09
6.62088e-06
8.78688e-09
6.61986e-06
9.02859e-09
6.61859e-06
9.7883e-09
6.61724e-06
1.03556e-08
6.61563e-06
1.12802e-08
6.61416e-06
1.18907e-08
6.61272e-06
1.2603e-08
6.6115e-06
1.2955e-08
6.61028e-06
1.33592e-08
6.60919e-06
1.3534e-08
6.6081e-06
1.37531e-08
6.60715e-06
1.37638e-08
6.60626e-06
1.3753e-08
6.60553e-06
1.35052e-08
6.60493e-06
1.31986e-08
6.60452e-06
1.2692e-08
6.60412e-06
1.22803e-08
1.14925e-08
6.60389e-06
7.16267e-06
-3.97444e-08
7.16641e-06
2.28167e-08
7.16232e-06
-1.43049e-08
7.16543e-06
1.08944e-08
7.16224e-06
-4.47841e-09
7.16418e-06
4.87705e-09
7.16162e-06
1.63738e-09
7.16248e-06
2.02369e-09
7.16127e-06
5.77195e-09
7.16104e-06
4.18675e-09
7.1604e-06
6.64265e-09
7.16004e-06
4.9034e-09
7.15916e-06
7.05519e-09
7.15859e-06
6.08073e-09
7.15755e-06
7.3606e-09
7.15683e-06
6.40684e-09
7.15581e-06
7.68765e-09
7.15502e-06
7.17701e-09
7.15396e-06
8.29032e-09
7.15309e-06
8.09961e-09
7.15196e-06
9.11123e-09
7.15093e-06
9.10584e-09
7.14964e-06
1.00735e-08
7.14834e-06
1.03313e-08
7.14674e-06
1.13863e-08
7.14526e-06
1.18385e-08
7.14382e-06
1.27184e-08
7.14263e-06
1.30757e-08
7.14152e-06
1.37177e-08
7.14047e-06
1.40004e-08
7.13936e-06
1.44713e-08
7.13827e-06
1.46233e-08
7.1371e-06
1.49217e-08
7.13596e-06
1.49082e-08
7.13479e-06
1.49188e-08
7.13368e-06
1.46161e-08
7.1326e-06
1.42783e-08
7.13173e-06
1.35603e-08
7.13161e-06
1.24067e-08
1.08137e-08
7.13229e-06
7.73471e-06
-3.58551e-08
7.73855e-06
1.8983e-08
7.73446e-06
-1.0217e-08
7.73729e-06
8.06325e-09
7.7344e-06
-1.58445e-09
7.73591e-06
3.36287e-09
7.73414e-06
3.41234e-09
7.73365e-06
2.51208e-09
7.73355e-06
5.87022e-09
7.73286e-06
4.87283e-09
7.73241e-06
7.09205e-09
7.7316e-06
5.72076e-09
7.73101e-06
7.64073e-09
7.73012e-06
6.96925e-09
7.72937e-06
8.10913e-09
7.72833e-06
7.44855e-09
7.7275e-06
8.52253e-09
7.7264e-06
8.27471e-09
7.72547e-06
9.21832e-09
7.72433e-06
9.23979e-09
7.7233e-06
1.01402e-08
7.72204e-06
1.03677e-08
7.72074e-06
1.13785e-08
7.71916e-06
1.1905e-08
7.71766e-06
1.28892e-08
7.71614e-06
1.33548e-08
7.71486e-06
1.39983e-08
7.71364e-06
1.43036e-08
7.71261e-06
1.47418e-08
7.71174e-06
1.48682e-08
7.71115e-06
1.50626e-08
7.71089e-06
1.48889e-08
7.71102e-06
1.47875e-08
7.71147e-06
1.44547e-08
7.71223e-06
1.4167e-08
7.71312e-06
1.37241e-08
7.7141e-06
1.32991e-08
7.71494e-06
1.2713e-08
7.71512e-06
1.22315e-08
1.13358e-08
7.7146e-06
8.35247e-06
-3.18678e-08
8.35634e-06
1.51177e-08
8.35232e-06
-6.20072e-09
8.35486e-06
5.5305e-09
8.3523e-06
9.71897e-10
8.35326e-06
2.40195e-09
8.35256e-06
4.11692e-09
8.35124e-06
3.8252e-09
8.35113e-06
5.98611e-09
8.35025e-06
5.75047e-09
8.34993e-06
7.41242e-09
8.34893e-06
6.72241e-09
8.34842e-06
8.14856e-09
8.34738e-06
8.0074e-09
8.34672e-06
8.76764e-09
8.34554e-06
8.63054e-09
8.34474e-06
9.32068e-09
8.34352e-06
9.49592e-09
8.34257e-06
1.01695e-08
8.34125e-06
1.05575e-08
8.34008e-06
1.131e-08
8.3385e-06
1.19455e-08
8.33705e-06
1.28315e-08
8.33545e-06
1.35102e-08
8.33417e-06
1.41702e-08
8.33289e-06
1.46312e-08
8.33183e-06
1.50602e-08
8.33082e-06
1.53115e-08
8.33002e-06
1.55356e-08
8.32938e-06
1.55141e-08
8.32911e-06
1.53314e-08
8.32902e-06
1.4983e-08
8.32918e-06
1.46244e-08
8.32936e-06
1.42712e-08
8.32966e-06
1.38687e-08
8.32999e-06
1.33948e-08
8.33039e-06
1.28946e-08
8.33081e-06
1.22992e-08
8.33139e-06
1.16479e-08
1.08285e-08
8.3319e-06
9.01963e-06
-2.78485e-08
9.02342e-06
1.13267e-08
9.01963e-06
-2.41536e-09
9.02161e-06
3.55706e-09
9.01974e-06
2.84198e-09
9.01945e-06
2.69271e-09
9.01948e-06
4.08604e-09
9.01864e-06
4.66016e-09
9.01815e-06
6.48136e-09
9.01722e-06
6.67891e-09
9.01672e-06
7.90779e-09
9.01578e-06
7.66518e-09
9.0151e-06
8.83159e-09
9.01411e-06
8.99207e-09
9.0133e-06
9.57657e-09
9.01218e-06
9.7552e-09
9.01121e-06
1.02901e-08
9.01003e-06
1.06774e-08
9.00891e-06
1.12877e-08
9.0076e-06
1.18634e-08
9.00619e-06
1.27237e-08
9.00459e-06
1.35478e-08
9.00308e-06
1.4336e-08
9.00166e-06
1.49374e-08
9.0004e-06
1.54308e-08
8.99924e-06
1.57861e-08
8.99828e-06
1.60198e-08
8.99751e-06
1.60874e-08
8.99713e-06
1.59096e-08
8.99695e-06
1.56914e-08
8.9969e-06
1.53892e-08
8.99685e-06
1.50258e-08
8.99684e-06
1.46417e-08
8.99684e-06
1.42639e-08
8.99691e-06
1.38055e-08
8.99704e-06
1.32605e-08
8.99721e-06
1.27275e-08
8.99736e-06
1.21517e-08
8.99744e-06
1.15619e-08
1.10152e-08
8.99725e-06
9.74011e-06
-2.38578e-08
9.74371e-06
7.72655e-09
9.74041e-06
8.89485e-10
9.74164e-06
2.32797e-09
9.74087e-06
3.6036e-09
9.73983e-06
3.73871e-09
9.73952e-06
4.39683e-09
9.73882e-06
5.35693e-09
9.73835e-06
6.95281e-09
9.73744e-06
7.59004e-09
9.73681e-06
8.5367e-09
9.73586e-06
8.61363e-09
9.73506e-06
9.62824e-09
9.73407e-06
9.98382e-09
9.73315e-06
1.04959e-08
9.73204e-06
1.08672e-08
9.73093e-06
1.1401e-08
9.72968e-06
1.1932e-08
9.72827e-06
1.26913e-08
9.72667e-06
1.34676e-08
9.7251e-06
1.42957e-08
9.72364e-06
1.50028e-08
9.72242e-06
1.55563e-08
9.72138e-06
1.59766e-08
9.7206e-06
1.62165e-08
9.72001e-06
1.63764e-08
9.71962e-06
1.64039e-08
9.71931e-06
1.64019e-08
9.71884e-06
1.63774e-08
9.71836e-06
1.61748e-08
9.7179e-06
1.58422e-08
9.7175e-06
1.54288e-08
9.7172e-06
1.49424e-08
9.7171e-06
1.43672e-08
9.71707e-06
1.38306e-08
9.71704e-06
1.32865e-08
9.71705e-06
1.2727e-08
9.71705e-06
1.21511e-08
9.71701e-06
1.15956e-08
1.10092e-08
9.71702e-06
1.05182e-05
-2.00049e-08
1.05215e-05
4.46775e-09
1.05197e-05
2.67332e-09
1.05193e-05
2.68936e-09
1.05188e-05
4.11602e-09
1.05178e-05
4.79765e-09
1.05171e-05
5.08581e-09
1.05163e-05
6.09441e-09
1.0516e-05
7.33052e-09
1.05152e-05
8.36277e-09
1.05144e-05
9.28842e-09
1.05135e-05
9.5703e-09
1.05126e-05
1.05387e-08
1.05116e-05
1.09937e-08
1.05105e-05
1.15231e-08
1.05094e-05
1.20206e-08
1.05081e-05
1.26587e-08
1.05067e-05
1.33464e-08
1.05052e-05
1.42193e-08
1.05036e-05
1.50535e-08
1.05022e-05
1.57072e-08
1.05009e-05
1.63134e-08
1.04997e-05
1.67363e-08
1.04985e-05
1.71566e-08
1.04974e-05
1.73533e-08
1.04963e-05
1.74803e-08
1.04953e-05
1.73695e-08
1.04946e-05
1.71207e-08
1.04944e-05
1.66135e-08
1.04944e-05
1.61733e-08
1.04945e-05
1.56994e-08
1.04947e-05
1.52576e-08
1.04948e-05
1.48064e-08
1.04948e-05
1.43605e-08
1.04948e-05
1.38818e-08
1.04947e-05
1.33313e-08
1.04947e-05
1.27512e-08
1.04947e-05
1.21554e-08
1.04947e-05
1.15548e-08
1.09667e-08
1.04948e-05
1.13585e-05
-1.63419e-08
1.13613e-05
1.6351e-09
1.13603e-05
3.74996e-09
1.13593e-05
3.62151e-09
1.13587e-05
4.70287e-09
1.1358e-05
5.4989e-09
1.13573e-05
5.81436e-09
1.13565e-05
6.95901e-09
1.13558e-05
7.97481e-09
1.1355e-05
9.15415e-09
1.13542e-05
1.01112e-08
1.13532e-05
1.05309e-08
1.13522e-05
1.15458e-08
1.13512e-05
1.20649e-08
1.135e-05
1.26785e-08
1.13487e-05
1.3299e-08
1.13472e-05
1.41332e-08
1.13457e-05
1.49053e-08
1.13442e-05
1.57486e-08
1.13428e-05
1.64553e-08
1.13415e-05
1.69791e-08
1.13403e-05
1.74893e-08
1.13393e-05
1.77778e-08
1.13384e-05
1.80248e-08
1.13377e-05
1.80188e-08
1.13373e-05
1.79257e-08
1.1337e-05
1.76893e-08
1.13367e-05
1.74074e-08
1.13363e-05
1.69974e-08
1.13359e-05
1.66052e-08
1.13355e-05
1.60946e-08
1.13352e-05
1.55651e-08
1.13349e-05
1.5021e-08
1.13348e-05
1.44778e-08
1.13348e-05
1.39158e-08
1.13348e-05
1.33337e-08
1.13348e-05
1.27324e-08
1.13349e-05
1.21175e-08
1.13349e-05
1.15011e-08
1.08565e-08
1.1335e-05
1.2266e-05
-1.29605e-08
1.22683e-05
-6.87041e-10
1.22676e-05
4.39776e-09
1.22666e-05
4.66785e-09
1.22658e-05
5.45105e-09
1.22652e-05
6.17658e-09
1.22644e-05
6.55132e-09
1.22635e-05
7.83385e-09
1.22628e-05
8.73432e-09
1.22619e-05
1.00128e-08
1.2261e-05
1.09993e-08
1.22601e-05
1.151e-08
1.2259e-05
1.26295e-08
1.22578e-05
1.32322e-08
1.22565e-05
1.39788e-08
1.2255e-05
1.47594e-08
1.22535e-05
1.57002e-08
1.22519e-05
1.64622e-08
1.22505e-05
1.7149e-08
1.22493e-05
1.77152e-08
1.22482e-05
1.80723e-08
1.22473e-05
1.8393e-08
1.22465e-05
1.85342e-08
1.22459e-05
1.86518e-08
1.22453e-05
1.85623e-08
1.22447e-05
1.85199e-08
1.22442e-05
1.82255e-08
1.22437e-05
1.78855e-08
1.22433e-05
1.74237e-08
1.2243e-05
1.69333e-08
1.22427e-05
1.63736e-08
1.22425e-05
1.57705e-08
1.22423e-05
1.51703e-08
1.22422e-05
1.45747e-08
1.22422e-05
1.39622e-08
1.22422e-05
1.334e-08
1.22422e-05
1.27093e-08
1.22423e-05
1.20751e-08
1.22423e-05
1.14449e-08
1.08066e-08
1.22424e-05
1.32459e-05
-9.91676e-09
1.32476e-05
-2.42604e-09
1.32473e-05
4.68565e-09
1.32464e-05
5.64233e-09
1.32455e-05
6.33217e-09
1.32447e-05
6.9659e-09
1.32439e-05
7.35242e-09
1.3243e-05
8.72187e-09
1.32422e-05
9.52376e-09
1.32413e-05
1.08973e-08
1.32404e-05
1.19631e-08
1.32393e-05
1.25523e-08
1.32382e-05
1.37848e-08
1.32369e-05
1.45263e-08
1.32354e-05
1.54755e-08
1.32338e-05
1.63424e-08
1.32323e-05
1.72309e-08
1.32309e-05
1.78264e-08
1.32297e-05
1.83733e-08
1.32285e-05
1.88808e-08
1.32274e-05
1.91995e-08
1.32263e-05
1.94861e-08
1.32253e-05
1.95655e-08
1.32243e-05
1.96018e-08
1.32235e-05
1.93407e-08
1.32231e-05
1.8954e-08
1.32228e-05
1.84794e-08
1.32227e-05
1.80193e-08
1.32226e-05
1.74932e-08
1.32226e-05
1.69892e-08
1.32225e-05
1.644e-08
1.32224e-05
1.59028e-08
1.32223e-05
1.52852e-08
1.32222e-05
1.46484e-08
1.32222e-05
1.39906e-08
1.32222e-05
1.33281e-08
1.32222e-05
1.26707e-08
1.32223e-05
1.2019e-08
1.32223e-05
1.13761e-08
1.07116e-08
1.32224e-05
1.43041e-05
-7.30761e-09
1.43051e-05
-3.36762e-09
1.43052e-05
4.57641e-09
1.43044e-05
6.4605e-09
1.43034e-05
7.27747e-09
1.43025e-05
7.84662e-09
1.43016e-05
8.24917e-09
1.43007e-05
9.68065e-09
1.42998e-05
1.03638e-08
1.42989e-05
1.17985e-08
1.42979e-05
1.29641e-08
1.42968e-05
1.36405e-08
1.42955e-05
1.51276e-08
1.4294e-05
1.60633e-08
1.42924e-05
1.70756e-08
1.42909e-05
1.7846e-08
1.42895e-05
1.85887e-08
1.42883e-05
1.90802e-08
1.42871e-05
1.95215e-08
1.42861e-05
1.98531e-08
1.42853e-05
1.99936e-08
1.42847e-05
2.01206e-08
1.42842e-05
2.00287e-08
1.42839e-05
1.99789e-08
1.42834e-05
1.9789e-08
1.42828e-05
1.95604e-08
1.42822e-05
1.90906e-08
1.42816e-05
1.85724e-08
1.42812e-05
1.79391e-08
1.42809e-05
1.73102e-08
1.42807e-05
1.6636e-08
1.42806e-05
1.59703e-08
1.42806e-05
1.53073e-08
1.42806e-05
1.46516e-08
1.42806e-05
1.39712e-08
1.42807e-05
1.32851e-08
1.42807e-05
1.26021e-08
1.42808e-05
1.19308e-08
1.42809e-05
1.12756e-08
1.06061e-08
1.4281e-05
1.54469e-05
-5.16826e-09
1.54463e-05
-2.85241e-09
1.54472e-05
3.6786e-09
1.54469e-05
6.84066e-09
1.54459e-05
8.24481e-09
1.54449e-05
8.88194e-09
1.54438e-05
9.28732e-09
1.54428e-05
1.07211e-08
1.54418e-05
1.13096e-08
1.54408e-05
1.28482e-08
1.54395e-05
1.4289e-08
1.54381e-05
1.50214e-08
1.54366e-05
1.65934e-08
1.54352e-05
1.7459e-08
1.54339e-05
1.83938e-08
1.54327e-05
1.90448e-08
1.54315e-05
1.97793e-08
1.54304e-05
2.02113e-08
1.54293e-05
2.0565e-08
1.54283e-05
2.08803e-08
1.54273e-05
2.09605e-08
1.54264e-05
2.10499e-08
1.54256e-05
2.08565e-08
1.54249e-05
2.06764e-08
1.54244e-05
2.02529e-08
1.54242e-05
1.97757e-08
1.54241e-05
1.92113e-08
1.5424e-05
1.86589e-08
1.54239e-05
1.8027e-08
1.54238e-05
1.73958e-08
1.54237e-05
1.67164e-08
1.54237e-05
1.60314e-08
1.54237e-05
1.53258e-08
1.54237e-05
1.462e-08
1.54238e-05
1.39092e-08
1.54238e-05
1.32027e-08
1.54239e-05
1.25041e-08
1.54241e-05
1.18179e-08
1.54242e-05
1.11502e-08
1.04862e-08
1.54243e-05
1.66808e-05
-3.49672e-09
1.66798e-05
-1.83936e-09
1.66805e-05
2.93135e-09
1.66804e-05
6.97084e-09
1.66795e-05
9.11227e-09
1.66784e-05
9.96836e-09
1.66773e-05
1.04375e-08
1.6676e-05
1.20518e-08
1.66747e-05
1.25981e-08
1.66734e-05
1.41063e-08
1.66721e-05
1.56292e-08
1.66708e-05
1.62482e-08
1.66696e-05
1.78022e-08
1.66684e-05
1.87056e-08
1.66672e-05
1.96177e-08
1.6666e-05
2.02028e-08
1.66649e-05
2.08887e-08
1.66638e-05
2.13248e-08
1.66628e-05
2.158e-08
1.66618e-05
2.18174e-08
1.66611e-05
2.17312e-08
1.66604e-05
2.16998e-08
1.66599e-05
2.13926e-08
1.66594e-05
2.11057e-08
1.66591e-05
2.06182e-08
1.66587e-05
2.01505e-08
1.66584e-05
1.94957e-08
1.66582e-05
1.88374e-08
1.66581e-05
1.81252e-08
1.66581e-05
1.7422e-08
1.66581e-05
1.67218e-08
1.66581e-05
1.60127e-08
1.66582e-05
1.52839e-08
1.66582e-05
1.45455e-08
1.66583e-05
1.3812e-08
1.66585e-05
1.30877e-08
1.66586e-05
1.23771e-08
1.66587e-05
1.16828e-08
1.66589e-05
1.10109e-08
1.03384e-08
1.6659e-05
1.8013e-05
-2.12609e-09
1.80121e-05
-8.82549e-10
1.8012e-05
2.99849e-09
1.80122e-05
6.81726e-09
1.80116e-05
9.66756e-09
1.80105e-05
1.1038e-08
1.80093e-05
1.16636e-08
1.80079e-05
1.34515e-08
1.80065e-05
1.39726e-08
1.80053e-05
1.53801e-08
1.80039e-05
1.69799e-08
1.80026e-05
1.75158e-08
1.80015e-05
1.89892e-08
1.80003e-05
1.99064e-08
1.79991e-05
2.07943e-08
1.79979e-05
2.13309e-08
1.79969e-05
2.19179e-08
1.79959e-05
2.23476e-08
1.7995e-05
2.25023e-08
1.79941e-05
2.26663e-08
1.79933e-05
2.25262e-08
1.79926e-05
2.24073e-08
1.7992e-05
2.20098e-08
1.79915e-05
2.15725e-08
1.79913e-05
2.08852e-08
1.79912e-05
2.02228e-08
1.79912e-05
1.94963e-08
1.79912e-05
1.8807e-08
1.79913e-05
1.80983e-08
1.79913e-05
1.74128e-08
1.79913e-05
1.66811e-08
1.79914e-05
1.5943e-08
1.79915e-05
1.51904e-08
1.79916e-05
1.44294e-08
1.79917e-05
1.36786e-08
1.79919e-05
1.29421e-08
1.7992e-05
1.22216e-08
1.79922e-05
1.15215e-08
1.79923e-05
1.08447e-08
1.01753e-08
1.79925e-05
1.94516e-05
-1.06087e-09
1.94506e-05
9.11568e-11
1.94501e-05
3.59353e-09
1.94502e-05
6.70914e-09
1.94499e-05
9.9524e-09
1.9449e-05
1.19492e-08
1.94478e-05
1.28472e-08
1.94464e-05
1.48471e-08
1.94449e-05
1.54413e-08
1.94436e-05
1.66808e-08
1.94422e-05
1.8361e-08
1.94409e-05
1.88052e-08
1.94398e-05
2.01447e-08
1.94386e-05
2.10643e-08
1.94375e-05
2.19087e-08
1.94364e-05
2.24126e-08
1.94355e-05
2.28756e-08
1.94346e-05
2.32516e-08
1.94337e-05
2.33322e-08
1.9433e-05
2.33807e-08
1.94324e-05
2.31318e-08
1.9432e-05
2.28415e-08
1.94317e-05
2.23308e-08
1.94315e-05
2.17822e-08
1.94313e-05
2.10682e-08
1.94311e-05
2.03515e-08
1.94311e-05
1.95818e-08
1.9431e-05
1.88462e-08
1.9431e-05
1.80946e-08
1.94311e-05
1.73555e-08
1.94312e-05
1.65906e-08
1.94313e-05
1.58196e-08
1.94314e-05
1.50421e-08
1.94316e-05
1.42747e-08
1.94318e-05
1.35105e-08
1.94319e-05
1.27664e-08
1.94321e-05
1.20383e-08
1.94323e-05
1.13366e-08
1.94325e-05
1.06581e-08
9.9926e-09
1.94327e-05
2.1005e-05
-2.49011e-10
2.1004e-05
1.1285e-09
2.10033e-05
4.24605e-09
2.1003e-05
7.01868e-09
2.10028e-05
1.01479e-08
2.10021e-05
1.26305e-08
2.10011e-05
1.38798e-08
2.09998e-05
1.61265e-08
2.09983e-05
1.69206e-08
2.0997e-05
1.79996e-08
2.09956e-05
1.97592e-08
2.09942e-05
2.01692e-08
2.09931e-05
2.12891e-08
2.0992e-05
2.21716e-08
2.0991e-05
2.29476e-08
2.099e-05
2.34007e-08
2.09891e-05
2.37372e-08
2.09883e-05
2.40138e-08
2.09877e-05
2.40164e-08
2.09871e-05
2.39473e-08
2.09866e-05
2.35964e-08
2.09863e-05
2.31858e-08
2.09861e-05
2.25518e-08
2.09859e-05
2.18924e-08
2.09859e-05
2.11082e-08
2.09859e-05
2.03593e-08
2.09859e-05
1.95789e-08
2.09859e-05
1.88227e-08
2.0986e-05
1.80312e-08
2.09861e-05
1.72566e-08
2.09862e-05
1.64472e-08
2.09864e-05
1.56615e-08
2.09866e-05
1.48626e-08
2.09868e-05
1.40837e-08
2.0987e-05
1.33086e-08
2.09872e-05
1.25605e-08
2.09874e-05
1.18287e-08
2.09876e-05
1.1128e-08
2.09878e-05
1.04509e-08
9.7891e-09
2.0988e-05
2.26823e-05
3.62514e-10
2.26813e-05
2.13518e-09
2.26805e-05
5.01774e-09
2.26799e-05
7.60891e-09
2.26796e-05
1.04801e-08
2.26791e-05
1.31525e-08
2.26783e-05
1.4673e-08
2.26772e-05
1.7214e-08
2.26758e-05
1.83142e-08
2.26745e-05
1.92678e-08
2.26732e-05
2.11474e-08
2.26717e-05
2.15963e-08
2.26706e-05
2.24305e-08
2.26696e-05
2.321e-08
2.26686e-05
2.38931e-08
2.26677e-05
2.42594e-08
2.2667e-05
2.44694e-08
2.26664e-05
2.4629e-08
2.26659e-05
2.45391e-08
2.26655e-05
2.4357e-08
2.26652e-05
2.38838e-08
2.2665e-05
2.33578e-08
2.26649e-05
2.26171e-08
2.26649e-05
2.1901e-08
2.2665e-05
2.10816e-08
2.2665e-05
2.0323e-08
2.26651e-05
1.95147e-08
2.26652e-05
1.87327e-08
2.26653e-05
1.79055e-08
2.26654e-05
1.70927e-08
2.26656e-05
1.62632e-08
2.26658e-05
1.54572e-08
2.26661e-05
1.46417e-08
2.26663e-05
1.38525e-08
2.26665e-05
1.30711e-08
2.26668e-05
1.23207e-08
2.2667e-05
1.15899e-08
2.26672e-05
1.08919e-08
2.26675e-05
1.02195e-08
9.5645e-09
2.26677e-05
2.44934e-05
8.63109e-10
2.44926e-05
2.99573e-09
2.44917e-05
5.93501e-09
2.44909e-05
8.39893e-09
2.44903e-05
1.11051e-08
2.44897e-05
1.37547e-08
2.44891e-05
1.5259e-08
2.44883e-05
1.79639e-08
2.44871e-05
1.95334e-08
2.44859e-05
2.04342e-08
2.44847e-05
2.24065e-08
2.44833e-05
2.3006e-08
2.44821e-05
2.35543e-08
2.44812e-05
2.41249e-08
2.44804e-05
2.46917e-08
2.44797e-05
2.49728e-08
2.44791e-05
2.50356e-08
2.44787e-05
2.50599e-08
2.44784e-05
2.48402e-08
2.44782e-05
2.4574e-08
2.44781e-05
2.3973e-08
2.44781e-05
2.33714e-08
2.44781e-05
2.2576e-08
2.44782e-05
2.18612e-08
2.44782e-05
2.10227e-08
2.44783e-05
2.02378e-08
2.44784e-05
1.93845e-08
2.44786e-05
1.85673e-08
2.44788e-05
1.77088e-08
2.4479e-05
1.68776e-08
2.44793e-05
1.60281e-08
2.44795e-05
1.51967e-08
2.44798e-05
1.43731e-08
2.44801e-05
1.35834e-08
2.44803e-05
1.27958e-08
2.44806e-05
1.20452e-08
2.44809e-05
1.13214e-08
2.44811e-05
1.0635e-08
2.44814e-05
9.97328e-09
9.3133e-09
2.44816e-05
2.64492e-05
1.25702e-09
2.64484e-05
3.75146e-09
2.64475e-05
6.8737e-09
2.64465e-05
9.33949e-09
2.64457e-05
1.19693e-08
2.64447e-05
1.47382e-08
2.64437e-05
1.62092e-08
2.6443e-05
1.87298e-08
2.6442e-05
2.05187e-08
2.64411e-05
2.13246e-08
2.64404e-05
2.31488e-08
2.64394e-05
2.39843e-08
2.64384e-05
2.44808e-08
2.64377e-05
2.48711e-08
2.64371e-05
2.53096e-08
2.64366e-05
2.54845e-08
2.64362e-05
2.53816e-08
2.6436e-05
2.52609e-08
2.6436e-05
2.49023e-08
2.6436e-05
2.45589e-08
2.6436e-05
2.39441e-08
2.6436e-05
2.33361e-08
2.64361e-05
2.2533e-08
2.64362e-05
2.17515e-08
2.64364e-05
2.08618e-08
2.64366e-05
2.00392e-08
2.64368e-05
1.91651e-08
2.6437e-05
1.83151e-08
2.64373e-05
1.74382e-08
2.64376e-05
1.65811e-08
2.64379e-05
1.57225e-08
2.64382e-05
1.48845e-08
2.64385e-05
1.40613e-08
2.64388e-05
1.3261e-08
2.64392e-05
1.24866e-08
2.64395e-05
1.17387e-08
2.64398e-05
1.10236e-08
2.64401e-05
1.03371e-08
2.64403e-05
9.68573e-09
9.0503e-09
2.64406e-05
2.8561e-05
1.57941e-09
2.85603e-05
4.43338e-09
2.85594e-05
7.75378e-09
2.85584e-05
1.03396e-08
2.85576e-05
1.28416e-08
2.85566e-05
1.57312e-08
2.85555e-05
1.72629e-08
2.85547e-05
1.95138e-08
2.85538e-05
2.14355e-08
2.85529e-05
2.22054e-08
2.85524e-05
2.37146e-08
2.85517e-05
2.46274e-08
2.85511e-05
2.51407e-08
2.85505e-05
2.54236e-08
2.85501e-05
2.57144e-08
2.85497e-05
2.58441e-08
2.85495e-05
2.56261e-08
2.85494e-05
2.53901e-08
2.85494e-05
2.49035e-08
2.85495e-05
2.44513e-08
2.85497e-05
2.3759e-08
2.85499e-05
2.30669e-08
2.85502e-05
2.22243e-08
2.85506e-05
2.14167e-08
2.85509e-05
2.05498e-08
2.85512e-05
1.97079e-08
2.85516e-05
1.88328e-08
2.85519e-05
1.79616e-08
2.85523e-05
1.70812e-08
2.85526e-05
1.62083e-08
2.8553e-05
1.53506e-08
2.85534e-05
1.45074e-08
2.85538e-05
1.36924e-08
2.85541e-05
1.28964e-08
2.85545e-05
1.21354e-08
2.85548e-05
1.13972e-08
2.85551e-05
1.06971e-08
2.85555e-05
1.00227e-08
2.85558e-05
9.38694e-09
8.79273e-09
2.8556e-05
3.08414e-05
1.84105e-09
3.08408e-05
5.0179e-09
3.084e-05
8.59022e-09
3.0839e-05
1.13343e-08
3.08381e-05
1.37314e-08
3.08372e-05
1.66387e-08
3.08362e-05
1.82533e-08
3.08355e-05
2.02547e-08
3.08347e-05
2.21962e-08
3.08339e-05
2.30072e-08
3.08334e-05
2.4218e-08
3.0833e-05
2.50632e-08
3.08326e-05
2.55575e-08
3.08322e-05
2.5743e-08
3.08321e-05
2.58548e-08
3.0832e-05
2.58987e-08
3.08321e-05
2.56051e-08
3.08322e-05
2.52753e-08
3.08324e-05
2.47083e-08
3.08327e-05
2.41652e-08
3.0833e-05
2.34381e-08
3.08333e-05
2.26985e-08
3.08337e-05
2.18495e-08
3.08341e-05
2.10066e-08
3.08345e-05
2.01339e-08
3.0835e-05
1.92672e-08
3.08354e-05
1.83921e-08
3.08359e-05
1.7507e-08
3.08363e-05
1.66285e-08
3.08368e-05
1.57489e-08
3.08372e-05
1.48968e-08
3.08377e-05
1.40562e-08
3.08381e-05
1.32535e-08
3.08386e-05
1.24691e-08
3.0839e-05
1.17268e-08
3.08394e-05
1.1018e-08
3.08397e-05
1.03367e-08
3.08401e-05
9.67929e-09
3.08404e-05
9.06117e-09
8.48085e-09
3.08407e-05
3.33039e-05
2.01431e-09
3.33034e-05
5.58669e-09
3.33026e-05
9.30528e-09
3.33017e-05
1.23076e-08
3.33008e-05
1.45599e-08
3.33e-05
1.74519e-08
3.32992e-05
1.91342e-08
3.32985e-05
2.09197e-08
3.32979e-05
2.27743e-08
3.32972e-05
2.36775e-08
3.32968e-05
2.46835e-08
3.32964e-05
2.54017e-08
3.32962e-05
2.58349e-08
3.32959e-05
2.59498e-08
3.32959e-05
2.58938e-08
3.3296e-05
2.57911e-08
3.32962e-05
2.53946e-08
3.32966e-05
2.49373e-08
3.3297e-05
2.42737e-08
3.32976e-05
2.36093e-08
3.32982e-05
2.28281e-08
3.32989e-05
2.20114e-08
3.32995e-05
2.12039e-08
3.33001e-05
2.03955e-08
3.33007e-05
1.95657e-08
3.33012e-05
1.87346e-08
3.33017e-05
1.78665e-08
3.33023e-05
1.69744e-08
3.33028e-05
1.60973e-08
3.33033e-05
1.52003e-08
3.33039e-05
1.43507e-08
3.33044e-05
1.35237e-08
3.33049e-05
1.27404e-08
3.33054e-05
1.19783e-08
3.33059e-05
1.1258e-08
3.33064e-05
1.05613e-08
3.33068e-05
9.90461e-09
3.33072e-05
9.27328e-09
3.33076e-05
8.67991e-09
8.10331e-09
3.3308e-05
3.5963e-05
2.16454e-09
3.59624e-05
6.12199e-09
3.59618e-05
9.97956e-09
3.59609e-05
1.31822e-08
3.59601e-05
1.53143e-08
3.59595e-05
1.80902e-08
3.59588e-05
1.9848e-08
3.59582e-05
2.15043e-08
3.59578e-05
2.31898e-08
3.59574e-05
2.40905e-08
3.59571e-05
2.49375e-08
3.59571e-05
2.54592e-08
3.59571e-05
2.57555e-08
3.59574e-05
2.57389e-08
3.59577e-05
2.55298e-08
3.59583e-05
2.52545e-08
3.59589e-05
2.47594e-08
3.59596e-05
2.42048e-08
3.59604e-05
2.35182e-08
3.59611e-05
2.28504e-08
3.59618e-05
2.22039e-08
3.59623e-05
2.15046e-08
3.59628e-05
2.07219e-08
3.59633e-05
1.98877e-08
3.59638e-05
1.90143e-08
3.59644e-05
1.80992e-08
3.59652e-05
1.71556e-08
3.59659e-05
1.6259e-08
3.59666e-05
1.54114e-08
3.59672e-05
1.46028e-08
3.59677e-05
1.3801e-08
3.59682e-05
1.30132e-08
3.59687e-05
1.22626e-08
3.59691e-05
1.15328e-08
3.59696e-05
1.08403e-08
3.59699e-05
1.01717e-08
3.59703e-05
9.53928e-09
3.59707e-05
8.93229e-09
3.5971e-05
8.35962e-09
7.82152e-09
3.59713e-05
3.88347e-05
1.89623e-09
3.88333e-05
7.55797e-09
3.88333e-05
1.00018e-08
3.88322e-05
1.42702e-08
3.88321e-05
1.54089e-08
3.88313e-05
1.88718e-08
3.88311e-05
2.00233e-08
3.88304e-05
2.22532e-08
3.88303e-05
2.3313e-08
3.88297e-05
2.46395e-08
3.88296e-05
2.50176e-08
3.88293e-05
2.57699e-08
3.88294e-05
2.5695e-08
3.88293e-05
2.5861e-08
3.88294e-05
2.53635e-08
3.88295e-05
2.51784e-08
3.88298e-05
2.4438e-08
3.88301e-05
2.39091e-08
3.88307e-05
2.29667e-08