/*--------------------------------*- C++ -*----------------------------------*\
| =========                 |                                                 |
| \\      /  F ield         | OpenFOAM: The Open Source CFD Toolbox           |
|  \\    /   O peration     | Version:  2312                                  |
|   \\  /    A nd           | Website:  www.openfoam.com                      |
|    \\/     M anipulation  |                                                 |
\*---------------------------------------------------------------------------*/
FoamFile
{
    version     2.0;
    format      ascii;
    arch        "LSB;label=32;scalar=64";
    class       volVectorField;
    location    "0.75";
    object      U;
}
// * * * * * * * * * * * * * * * * * * * * * * * * * * * * * * * * * * * * * //

dimensions      [0 1 -1 0 0 0 0];

internalField   nonuniform List<vector> 
5600
(
(0.971758 -0.000845799 0)
(1.02745 0.000729996 0)
(0.974354 -0.00066027 0)
(1.02493 0.000598032 0)
(0.976919 -0.000557585 0)
(1.02253 0.000467361 0)
(0.979256 -0.00044216 0)
(1.02023 0.000382698 0)
(0.981367 -0.000295287 0)
(1.01797 0.00033137 0)
(0.983215 -0.000201935 0)
(1.0158 0.000276992 0)
(0.984879 -0.000161375 0)
(1.0138 0.000207032 0)
(0.986367 -0.000121616 0)
(1.01195 0.000175458 0)
(0.987664 -6.97032e-05 0)
(1.01023 0.000183682 0)
(0.988784 -1.48772e-05 0)
(1.00863 0.000202136 0)
(0.989743 2.45085e-05 0)
(1.00715 0.000216409 0)
(0.990529 6.57864e-05 0)
(1.00575 0.000241096 0)
(0.99114 0.00012369 0)
(1.00442 0.000281484 0)
(0.991593 0.00019011 0)
(1.00317 0.000329342 0)
(0.991897 0.000257121 0)
(1.00197 0.000380108 0)
(0.992053 0.000329826 0)
(1.0008 0.000458069 0)
(0.99206 0.000465337 0)
(0.99965 0.00065523 0)
(0.991959 0.000757562 0)
(0.998577 0.00101382 0)
(0.991817 0.0011886 0)
(0.99759 0.00153242 0)
(0.991702 0.00187869 0)
(0.997048 0.00244286 0)
(0.98736 -0.000865059 0)
(1.01106 0.000718639 0)
(0.989871 -0.000651248 0)
(1.00908 0.000583666 0)
(0.991974 -0.000543453 0)
(1.00733 0.000445316 0)
(0.993694 -0.000414251 0)
(1.00579 0.000358839 0)
(0.995008 -0.000248518 0)
(1.00445 0.000310505 0)
(0.995957 -0.000141213 0)
(1.00321 0.000259571 0)
(0.996671 -9.81956e-05 0)
(1.00218 0.000195189 0)
(0.99715 -5.64211e-05 0)
(1.00131 0.000175749 0)
(0.99743 -7.28785e-07 0)
(1.00055 0.000197114 0)
(0.997581 5.79264e-05 0)
(0.999878 0.000229049 0)
(0.997639 0.000107351 0)
(0.999293 0.000261267 0)
(0.99759 0.000162363 0)
(0.998732 0.000310685 0)
(0.997426 0.000242222 0)
(0.998179 0.000381957 0)
(0.997166 0.000336898 0)
(0.997622 0.000466911 0)
(0.996819 0.000443631 0)
(0.99705 0.000573354 0)
(0.996403 0.000585306 0)
(0.996476 0.000743891 0)
(0.995963 0.000833608 0)
(0.995936 0.00107869 0)
(0.995527 0.00127881 0)
(0.995433 0.00160868 0)
(0.995148 0.00189631 0)
(0.995112 0.00233414 0)
(0.995118 0.00280441 0)
(0.995467 0.00346261 0)
(0.996926 -0.000777258 0)
(1.00201 0.000605954 0)
(0.997721 -0.000552637 0)
(1.00138 0.000477822 0)
(0.99828 -0.00044263 0)
(1.00079 0.000338671 0)
(0.998695 -0.000312526 0)
(1.00034 0.000259596 0)
(0.998901 -0.000153372 0)
(1.00002 0.000219361 0)
(0.998952 -4.44117e-05 0)
(0.999635 0.000177311 0)
(0.998903 -7.96823e-06 0)
(0.999278 0.000127873 0)
(0.998758 2.92338e-05 0)
(0.99894 0.00012243 0)
(0.998535 7.64174e-05 0)
(0.998607 0.000151833 0)
(0.998294 0.000119153 0)
(0.998289 0.000187963 0)
(0.998052 0.000169279 0)
(0.997987 0.000231527 0)
(0.997779 0.000230137 0)
(0.997653 0.000295292 0)
(0.997448 0.000312306 0)
(0.997278 0.000382054 0)
(0.997066 0.000413014 0)
(0.996862 0.000487467 0)
(0.996637 0.000535178 0)
(0.99641 0.000630324 0)
(0.996178 0.000725042 0)
(0.995946 0.000876827 0)
(0.995725 0.00103074 0)
(0.995505 0.00122133 0)
(0.995294 0.00141 0)
(0.995095 0.00164101 0)
(0.994943 0.00188957 0)
(0.994868 0.00218768 0)
(0.99494 0.00250393 0)
(0.995259 0.00284719 0)
(0.999548 -0.000768797 0)
(0.999835 0.000592343 0)
(0.999482 -0.000531818 0)
(0.999806 0.000470075 0)
(0.999483 -0.000417526 0)
(0.999557 0.00032494 0)
(0.999416 -0.000286094 0)
(0.999415 0.000248664 0)
(0.999318 -0.000123051 0)
(0.999315 0.000212551 0)
(0.999177 -7.1295e-06 0)
(0.999141 0.000180631 0)
(0.998978 3.03633e-05 0)
(0.998869 0.000139558 0)
(0.998726 7.10606e-05 0)
(0.998592 0.00014633 0)
(0.99845 0.000121386 0)
(0.998305 0.000184534 0)
(0.998161 0.000169258 0)
(0.99801 0.000229366 0)
(0.997872 0.000223646 0)
(0.997715 0.000284607 0)
(0.997565 0.000297692 0)
(0.997386 0.000366477 0)
(0.997219 0.000400219 0)
(0.997021 0.000478896 0)
(0.996835 0.0005314 0)
(0.99662 0.000623672 0)
(0.996421 0.000701698 0)
(0.996205 0.000821027 0)
(0.996014 0.000942905 0)
(0.995809 0.00111413 0)
(0.995619 0.00129041 0)
(0.995421 0.00149647 0)
(0.995251 0.00170435 0)
(0.995103 0.00195005 0)
(0.995023 0.00221508 0)
(0.995028 0.00252138 0)
(0.995186 0.0028441 0)
(0.995577 0.00318804 0)
(0.999972 -0.000700268 0)
(0.999544 0.000518133 0)
(0.999687 -0.00045698 0)
(0.999644 0.000394491 0)
(0.999658 -0.00033188 0)
(0.999437 0.000252518 0)
(0.999467 -0.000205887 0)
(0.999334 0.000178214 0)
(0.999339 -5.01678e-05 0)
(0.999233 0.000151259 0)
(0.999159 6.11287e-05 0)
(0.999111 0.000138946 0)
(0.998976 9.43702e-05 0)
(0.998827 0.000124545 0)
(0.998701 0.000107476 0)
(0.998554 0.000148797 0)
(0.998438 0.000155713 0)
(0.998288 0.000196537 0)
(0.998157 0.000209129 0)
(0.997996 0.000248731 0)
(0.997851 0.000269613 0)
(0.997683 0.000315773 0)
(0.99752 0.000351779 0)
(0.997335 0.000412494 0)
(0.99716 0.00046643 0)
(0.996963 0.000544218 0)
(0.99678 0.000617846 0)
(0.996575 0.000718304 0)
(0.996389 0.000826234 0)
(0.99619 0.000969722 0)
(0.996015 0.00112114 0)
(0.995835 0.00129397 0)
(0.99567 0.0014675 0)
(0.995501 0.00165873 0)
(0.99536 0.00185517 0)
(0.995248 0.00207056 0)
(0.995201 0.00229223 0)
(0.995236 0.00252606 0)
(0.995408 0.00275717 0)
(0.995799 0.00298546 0)
(1.00002 -0.000683671 0)
(0.999533 0.000499752 0)
(0.999687 -0.00042866 0)
(0.99963 0.000370221 0)
(0.999699 -0.000292088 0)
(0.999456 0.000235056 0)
(0.99946 -0.000168045 0)
(0.999348 0.000159339 0)
(0.999344 -1.06748e-05 0)
(0.99923 0.000140781 0)
(0.999145 9.32751e-05 0)
(0.999109 0.000136791 0)
(0.998996 0.000130184 0)
(0.998831 0.000145626 0)
(0.998708 0.000142608 0)
(0.998558 0.000173828 0)
(0.998453 0.000197323 0)
(0.998311 0.000230105 0)
(0.998185 0.000257246 0)
(0.998032 0.000295089 0)
(0.997878 0.000329867 0)
(0.997715 0.000376753 0)
(0.997541 0.000426369 0)
(0.997359 0.000490394 0)
(0.997176 0.000559622 0)
(0.996984 0.000646218 0)
(0.9968 0.000740793 0)
(0.996609 0.000857276 0)
(0.996438 0.000986902 0)
(0.996266 0.00114392 0)
(0.996107 0.00131429 0)
(0.995943 0.00149379 0)
(0.995788 0.00167034 0)
(0.995641 0.00185342 0)
(0.99552 0.00204015 0)
(0.995437 0.00223458 0)
(0.995413 0.00243036 0)
(0.995476 0.00262664 0)
(0.995671 0.0028183 0)
(0.996087 0.0030046 0)
(1.00002 -0.000619685 0)
(0.99955 0.000432954 0)
(0.999685 -0.00035576 0)
(0.999617 0.000296854 0)
(0.999704 -0.000213409 0)
(0.999494 0.000176747 0)
(0.999461 -9.65688e-05 0)
(0.999359 0.000100783 0)
(0.999348 5.19049e-05 0)
(0.999235 0.000108982 0)
(0.999151 0.000135303 0)
(0.999094 0.000128009 0)
(0.999006 0.000154261 0)
(0.99885 0.000162918 0)
(0.998727 0.000177523 0)
(0.998574 0.000194537 0)
(0.998469 0.000229722 0)
(0.99833 0.000255819 0)
(0.998202 0.000296142 0)
(0.998061 0.000334454 0)
(0.997903 0.000382133 0)
(0.99775 0.000432486 0)
(0.997574 0.000493598 0)
(0.9974 0.00056379 0)
(0.997219 0.000645802 0)
(0.997038 0.000744221 0)
(0.996863 0.000857563 0)
(0.996688 0.00099484 0)
(0.996528 0.00114902 0)
(0.996373 0.00131723 0)
(0.996226 0.00148546 0)
(0.996075 0.00165759 0)
(0.995934 0.00182846 0)
(0.995803 0.00200379 0)
(0.9957 0.00217955 0)
(0.995632 0.00235621 0)
(0.995622 0.00252806 0)
(0.995691 0.00269138 0)
(0.99589 0.00284114 0)
(0.996306 0.00297352 0)
(1.00002 -0.000591832 0)
(0.999569 0.000401919 0)
(0.999696 -0.000312238 0)
(0.999613 0.000258845 0)
(0.999686 -0.000167233 0)
(0.999532 0.000153418 0)
(0.999478 -4.83172e-05 0)
(0.99937 8.09064e-05 0)
(0.999349 8.90084e-05 0)
(0.999239 0.000102919 0)
(0.999165 0.000156576 0)
(0.999087 0.00013461 0)
(0.999001 0.000183614 0)
(0.998873 0.000187158 0)
(0.998751 0.000218169 0)
(0.998602 0.000222982 0)
(0.998491 0.000270512 0)
(0.998354 0.000291027 0)
(0.998218 0.000344668 0)
(0.998083 0.000382034 0)
(0.997925 0.000445251 0)
(0.997778 0.000496525 0)
(0.99761 0.000573625 0)
(0.997445 0.000645098 0)
(0.997275 0.000744405 0)
(0.997106 0.000850484 0)
(0.996947 0.000992302 0)
(0.996791 0.00114499 0)
(0.99665 0.00131911 0)
(0.996503 0.001489 0)
(0.996365 0.00166282 0)
(0.996222 0.00182935 0)
(0.996095 0.00200117 0)
(0.995976 0.00216386 0)
(0.995888 0.00232521 0)
(0.995829 0.00246772 0)
(0.995824 0.00259923 0)
(0.995888 0.00270451 0)
(0.996075 0.00279655 0)
(0.996465 0.0028707 0)
(1.00002 -0.000529922 0)
(0.999586 0.000337133 0)
(0.999709 -0.000239877 0)
(0.999621 0.00019558 0)
(0.999665 -0.000101057 0)
(0.999557 0.00010436 0)
(0.999504 1.22163e-05 0)
(0.999382 4.64278e-05 0)
(0.999357 0.000131132 0)
(0.999242 0.000102731 0)
(0.999176 0.000177244 0)
(0.999091 0.000137516 0)
(0.998994 0.000217323 0)
(0.99889 0.000200214 0)
(0.998773 0.00026188 0)
(0.998634 0.000243135 0)
(0.998517 0.000319052 0)
(0.998382 0.000318598 0)
(0.998241 0.000401402 0)
(0.998106 0.000421148 0)
(0.997954 0.000514878 0)
(0.997809 0.000552895 0)
(0.997653 0.000662206 0)
(0.997495 0.000726632 0)
(0.997343 0.000861848 0)
(0.997193 0.000969655 0)
(0.997058 0.00114344 0)
(0.996916 0.00128633 0)
(0.996786 0.00146958 0)
(0.996646 0.00161907 0)
(0.996519 0.00180796 0)
(0.996386 0.00197484 0)
(0.996268 0.00218238 0)
(0.996149 0.00236537 0)
(0.996053 0.00256979 0)
(0.995972 0.00272931 0)
(0.99594 0.00288858 0)
(0.995974 0.00298241 0)
(0.99615 0.00302601 0)
(0.99658 0.00290718 0)
(1.00003 -0.000492214 0)
(0.999599 0.000295135 0)
(0.999724 -0.000186998 0)
(0.999631 0.000155052 0)
(0.999656 -5.2591e-05 0)
(0.999569 7.81328e-05 0)
(0.999527 5.76552e-05 0)
(0.999395 4.12843e-05 0)
(0.999375 0.000142568 0)
(0.999246 0.000114431 0)
(0.99919 0.000194135 0)
(0.999101 0.000156679 0)
(0.998999 0.000242227 0)
(0.9989 0.00022557 0)
(0.998795 0.000296878 0)
(0.998661 0.000280159 0)
(0.998547 0.000361399 0)
(0.998411 0.000365268 0)
(0.998273 0.000454287 0)
(0.998134 0.000479307 0)
(0.997995 0.000581055 0)
(0.997848 0.000627388 0)
(0.99771 0.000750276 0)
(0.99756 0.000833751 0)
(0.997432 0.000991144 0)
(0.997294 0.00111103 0)
(0.997175 0.00128151 0)
(0.99704 0.00141144 0)
(0.996924 0.00158499 0)
(0.9968 0.00172827 0)
(0.996704 0.00191376 0)
(0.996604 0.00207273 0)
(0.996527 0.00226494 0)
(0.996437 0.00242264 0)
(0.996357 0.00259922 0)
(0.996272 0.00273743 0)
(0.996205 0.00288322 0)
(0.99611 0.00297041 0)
(0.995933 0.00300953 0)
(0.995518 0.00288742 0)
(1.00003 -0.000431809 0)
(0.99962 0.000232441 0)
(0.99973 -0.000118081 0)
(0.999648 0.000105681 0)
(0.999656 -1.93458e-06 0)
(0.999583 4.76026e-05 0)
(0.999542 8.27413e-05 0)
(0.999409 7.25201e-05 0)
(0.999392 0.0001375 0)
(0.999259 0.000136277 0)
(0.999203 0.000199431 0)
(0.999116 0.000188605 0)
(0.99901 0.000253496 0)
(0.998914 0.000264477 0)
(0.998814 0.000316913 0)
(0.998687 0.00033059 0)
(0.998575 0.000390596 0)
(0.998443 0.000425313 0)
(0.998309 0.000495417 0)
(0.998171 0.000551529 0)
(0.998041 0.000640235 0)
(0.997902 0.000722479 0)
(0.997781 0.000840887 0)
(0.997648 0.000960224 0)
(0.997535 0.0011057 0)
(0.997405 0.00123936 0)
(0.997295 0.00138579 0)
(0.997171 0.00152308 0)
(0.997072 0.00167465 0)
(0.996963 0.00182002 0)
(0.996877 0.00197183 0)
(0.996775 0.00210385 0)
(0.996684 0.00222849 0)
(0.996576 0.00233134 0)
(0.996485 0.00243579 0)
(0.996393 0.00252984 0)
(0.996312 0.00262357 0)
(0.996197 0.00269526 0)
(0.996009 0.00275502 0)
(0.995633 0.00279562 0)
(1.00003 -0.000387214 0)
(0.999647 0.00018556 0)
(0.999734 -6.61361e-05 0)
(0.999666 7.30894e-05 0)
(0.999658 3.84082e-05 0)
(0.999598 4.25098e-05 0)
(0.999559 8.39306e-05 0)
(0.999425 9.69563e-05 0)
(0.999408 0.000149672 0)
(0.999276 0.00016042 0)
(0.999219 0.000212399 0)
(0.999135 0.000216354 0)
(0.999029 0.000274795 0)
(0.998932 0.000298173 0)
(0.998836 0.000346328 0)
(0.998713 0.000376735 0)
(0.998605 0.000431962 0)
(0.998478 0.000482207 0)
(0.99835 0.000551106 0)
(0.998219 0.000622452 0)
(0.9981 0.000716854 0)
(0.997973 0.000823689 0)
(0.997867 0.000950523 0)
(0.997745 0.00107892 0)
(0.99764 0.00121404 0)
(0.997518 0.00134941 0)
(0.997418 0.00149045 0)
(0.997305 0.0016296 0)
(0.997217 0.00176249 0)
(0.997114 0.00188309 0)
(0.997026 0.00199374 0)
(0.996918 0.00209494 0)
(0.996828 0.00219549 0)
(0.996736 0.00229768 0)
(0.996667 0.00240712 0)
(0.99659 0.00251435 0)
(0.996507 0.0026172 0)
(0.996372 0.00270425 0)
(0.996151 0.00277726 0)
(0.995733 0.00283138 0)
(1.00003 -0.000330055 0)
(0.999677 0.000128885 0)
(0.999738 -3.63768e-06 0)
(0.999685 3.99787e-05 0)
(0.999669 6.1087e-05 0)
(0.99961 6.13755e-05 0)
(0.999574 8.36494e-05 0)
(0.999444 0.000109289 0)
(0.999426 0.000160545 0)
(0.999295 0.00018547 0)
(0.999237 0.000228785 0)
(0.999156 0.00024511 0)
(0.999052 0.000298879 0)
(0.998954 0.000332358 0)
(0.998861 0.000379104 0)
(0.998742 0.000421705 0)
(0.998638 0.000477965 0)
(0.998517 0.000538451 0)
(0.998396 0.000615121 0)
(0.998275 0.000700907 0)
(0.998172 0.000807764 0)
(0.99806 0.000926531 0)
(0.997962 0.00105002 0)
(0.997848 0.00117198 0)
(0.997754 0.00129299 0)
(0.997646 0.00141585 0)
(0.997556 0.00153877 0)
(0.997444 0.0016635 0)
(0.997345 0.00178499 0)
(0.997232 0.00190412 0)
(0.997143 0.00201784 0)
(0.99705 0.00212708 0)
(0.996981 0.00223339 0)
(0.996908 0.00233626 0)
(0.996848 0.00243672 0)
(0.996773 0.00253019 0)
(0.996682 0.00261737 0)
(0.996535 0.00269386 0)
(0.996302 0.00276338 0)
(0.995881 0.00282454 0)
(1.00003 -0.000282401 0)
(0.999712 8.30501e-05 0)
(0.999745 3.20767e-05 0)
(0.9997 3.66097e-05 0)
(0.999684 6.52745e-05 0)
(0.999626 8.13867e-05 0)
(0.999592 9.62474e-05 0)
(0.999465 0.000126586 0)
(0.999449 0.000169845 0)
(0.999316 0.000206472 0)
(0.999258 0.000247493 0)
(0.999179 0.000273861 0)
(0.999079 0.000326685 0)
(0.998982 0.000367919 0)
(0.998891 0.000416172 0)
(0.998777 0.000468282 0)
(0.998678 0.000530585 0)
(0.998566 0.000600912 0)
(0.998455 0.000690342 0)
(0.998347 0.000792308 0)
(0.998256 0.000903824 0)
(0.998149 0.00102152 0)
(0.998057 0.00113523 0)
(0.997946 0.00125403 0)
(0.997856 0.00136908 0)
(0.997751 0.00148952 0)
(0.997669 0.00160234 0)
(0.997574 0.00171667 0)
(0.9975 0.00182355 0)
(0.99741 0.0019337 0)
(0.997332 0.00203948 0)
(0.997236 0.00214655 0)
(0.997159 0.00224868 0)
(0.997081 0.00234886 0)
(0.997021 0.00244314 0)
(0.996945 0.00253255 0)
(0.996856 0.00261542 0)
(0.99671 0.00269259 0)
(0.996478 0.00276423 0)
(0.996061 0.00283091 0)
(1.00003 -0.000232394 0)
(0.999745 4.05076e-05 0)
(0.999757 4.93802e-05 0)
(0.999716 5.05865e-05 0)
(0.999703 7.84005e-05 0)
(0.999642 0.000100385 0)
(0.999608 0.000113304 0)
(0.999486 0.000144631 0)
(0.999471 0.000181468 0)
(0.99934 0.0002243 0)
(0.999282 0.000269216 0)
(0.999206 0.0003017 0)
(0.99911 0.000358282 0)
(0.999012 0.000403934 0)
(0.998926 0.000457719 0)
(0.998816 0.000516508 0)
(0.998725 0.000589641 0)
(0.998623 0.000670405 0)
(0.998525 0.00076993 0)
(0.998426 0.000877835 0)
(0.998342 0.000983513 0)
(0.998243 0.0010972 0)
(0.998159 0.00120904 0)
(0.99806 0.00133112 0)
(0.997983 0.00144915 0)
(0.997888 0.00157234 0)
(0.99781 0.00168316 0)
(0.997708 0.00178936 0)
(0.997622 0.0018806 0)
(0.997526 0.00196795 0)
(0.997455 0.00205028 0)
(0.99738 0.00213888 0)
(0.997326 0.00223142 0)
(0.997265 0.00232733 0)
(0.997213 0.00242091 0)
(0.997141 0.00250986 0)
(0.997052 0.00259273 0)
(0.996906 0.00266888 0)
(0.996675 0.00273962 0)
(0.996257 0.00280439 0)
(1.00003 -0.000186691 0)
(0.999781 3.17903e-06 0)
(0.999774 6.32813e-05 0)
(0.999732 6.85751e-05 0)
(0.99972 8.78542e-05 0)
(0.99966 0.000108845 0)
(0.999629 0.000125172 0)
(0.999509 0.000162843 0)
(0.999497 0.000198699 0)
(0.999367 0.000247241 0)
(0.999309 0.000293259 0)
(0.999237 0.00033145 0)
(0.999143 0.000392094 0)
(0.999048 0.000443054 0)
(0.998966 0.000503841 0)
(0.998865 0.000571486 0)
(0.998782 0.000656845 0)
(0.998691 0.00074778 0)
(0.998603 0.00084885 0)
(0.998508 0.0009541 0)
(0.998431 0.00105554 0)
(0.998342 0.00116382 0)
(0.998269 0.00126986 0)
(0.998178 0.00138262 0)
(0.998106 0.00148795 0)
(0.99801 0.00159755 0)
(0.997929 0.00169928 0)
(0.997829 0.00180441 0)
(0.997752 0.001903 0)
(0.997668 0.00200226 0)
(0.997611 0.00209643 0)
(0.997551 0.00219107 0)
(0.997509 0.00228259 0)
(0.997458 0.00237261 0)
(0.997411 0.00245833 0)
(0.997342 0.00253953 0)
(0.997252 0.00261526 0)
(0.997105 0.00268523 0)
(0.996872 0.0027502 0)
(0.996455 0.00280982 0)
(1.00003 -0.000145876 0)
(0.999815 -2.30675e-05 0)
(0.999796 6.87348e-05 0)
(0.999749 8.3337e-05 0)
(0.999739 0.000103289 0)
(0.999679 0.000125065 0)
(0.999649 0.000142853 0)
(0.999533 0.000183341 0)
(0.999524 0.000218688 0)
(0.999397 0.000269632 0)
(0.999339 0.000320031 0)
(0.99927 0.000361623 0)
(0.999182 0.00042945 0)
(0.999088 0.000486452 0)
(0.999013 0.000555976 0)
(0.998921 0.000633849 0)
(0.998847 0.000726229 0)
(0.998764 0.000819258 0)
(0.998683 0.000916099 0)
(0.998594 0.00101813 0)
(0.998523 0.00111946 0)
(0.998441 0.00122916 0)
(0.998374 0.00133618 0)
(0.998289 0.00144933 0)
(0.998225 0.00155062 0)
(0.998144 0.00165294 0)
(0.99808 0.00174588 0)
(0.997993 0.00184344 0)
(0.997921 0.0019364 0)
(0.997839 0.00203244 0)
(0.997782 0.00212384 0)
(0.997726 0.00221472 0)
(0.997689 0.00230047 0)
(0.997643 0.00238341 0)
(0.9976 0.00246128 0)
(0.997533 0.00253506 0)
(0.997445 0.00260399 0)
(0.997299 0.00266831 0)
(0.997067 0.00272831 0)
(0.996649 0.00278378 0)
(1.00003 -0.000108696 0)
(0.999848 -4.58234e-05 0)
(0.999823 7.24737e-05 0)
(0.999767 0.000101196 0)
(0.999757 0.00012009 0)
(0.999698 0.000139805 0)
(0.999673 0.000158739 0)
(0.999558 0.000203019 0)
(0.999553 0.000236579 0)
(0.999429 0.000293109 0)
(0.999371 0.000345711 0)
(0.999309 0.000392631 0)
(0.999225 0.00046679 0)
(0.999135 0.000534126 0)
(0.999068 0.00061498 0)
(0.998986 0.000699941 0)
(0.998918 0.000793439 0)
(0.998839 0.000882595 0)
(0.998766 0.00097798 0)
(0.998686 0.00107711 0)
(0.998627 0.00117698 0)
(0.998556 0.00128413 0)
(0.998502 0.00138669 0)
(0.998421 0.00149759 0)
(0.998354 0.00159789 0)
(0.998264 0.00170086 0)
(0.998196 0.00179065 0)
(0.998114 0.00188063 0)
(0.998056 0.00196328 0)
(0.997992 0.00205014 0)
(0.997951 0.0021339 0)
(0.997905 0.00221909 0)
(0.997874 0.00229958 0)
(0.997832 0.00237782 0)
(0.997792 0.00245062 0)
(0.997728 0.00251969 0)
(0.997641 0.00258379 0)
(0.997497 0.00264388 0)
(0.997266 0.00269975 0)
(0.996849 0.00275169 0)
(1.00003 -7.77442e-05 0)
(0.999878 -4.77218e-05 0)
(0.999855 6.36141e-05 0)
(0.999788 0.000109711 0)
(0.999777 0.000136587 0)
(0.999719 0.000158696 0)
(0.999695 0.000179383 0)
(0.999584 0.000224575 0)
(0.999583 0.000257668 0)
(0.999464 0.000315819 0)
(0.999407 0.000378177 0)
(0.999351 0.00042978 0)
(0.999276 0.000514564 0)
(0.999191 0.000589103 0)
(0.99913 0.0006743 0)
(0.999054 0.000757613 0)
(0.99899 0.000850502 0)
(0.998918 0.000938752 0)
(0.998853 0.00103342 0)
(0.99878 0.00113298 0)
(0.998728 0.00122921 0)
(0.998662 0.00133334 0)
(0.998614 0.00142774 0)
(0.998544 0.0015316 0)
(0.99849 0.00162621 0)
(0.998415 0.00172808 0)
(0.998354 0.00181985 0)
(0.998276 0.00191361 0)
(0.998219 0.00199863 0)
(0.998159 0.00208417 0)
(0.998123 0.00216398 0)
(0.998084 0.00224328 0)
(0.998059 0.00231792 0)
(0.998022 0.00238996 0)
(0.997984 0.00245727 0)
(0.997922 0.00252071 0)
(0.997836 0.00257982 0)
(0.997693 0.00263481 0)
(0.997463 0.00268613 0)
(0.997046 0.00273348 0)
(1.00003 -5.51469e-05 0)
(0.999903 -3.1431e-05 0)
(0.999884 4.68857e-05 0)
(0.99981 0.000112937 0)
(0.999794 0.000153847 0)
(0.999736 0.000178402 0)
(0.999718 0.000201811 0)
(0.999608 0.000251091 0)
(0.999612 0.000283844 0)
(0.9995 0.000346243 0)
(0.999445 0.00041559 0)
(0.999397 0.000470826 0)
(0.99933 0.000560517 0)
(0.999247 0.00063693 0)
(0.99919 0.000721669 0)
(0.999123 0.000802088 0)
(0.999065 0.00089781 0)
(0.998999 0.000989483 0)
(0.998944 0.00108423 0)
(0.998879 0.00118546 0)
(0.998837 0.00128059 0)
(0.998779 0.00138567 0)
(0.998741 0.00147966 0)
(0.998677 0.00158123 0)
(0.998626 0.00167089 0)
(0.998551 0.00176337 0)
(0.998492 0.00184498 0)
(0.99842 0.00192852 0)
(0.998372 0.00200671 0)
(0.998321 0.00208664 0)
(0.998293 0.00216261 0)
(0.99826 0.00223737 0)
(0.99824 0.00230765 0)
(0.998206 0.00237468 0)
(0.998171 0.00243729 0)
(0.998111 0.0024959 0)
(0.998026 0.00255058 0)
(0.997884 0.00260122 0)
(0.997654 0.00264856 0)
(0.997238 0.00269212 0)
(1.00003 -3.4615e-05 0)
(0.99992 -1.87093e-05 0)
(0.999909 4.06418e-05 0)
(0.999834 0.000112178 0)
(0.999813 0.00016635 0)
(0.999754 0.00020096 0)
(0.999738 0.00022691 0)
(0.999632 0.000281824 0)
(0.99964 0.000317066 0)
(0.999537 0.000380195 0)
(0.999483 0.000454562 0)
(0.999442 0.000507697 0)
(0.999384 0.000597164 0)
(0.999304 0.000676247 0)
(0.999252 0.000764099 0)
(0.999194 0.000847521 0)
(0.999145 0.00094338 0)
(0.999085 0.0010406 0)
(0.999039 0.00113377 0)
(0.998981 0.00123616 0)
(0.998947 0.00132854 0)
(0.998895 0.00143052 0)
(0.998861 0.00151965 0)
(0.998802 0.00161328 0)
(0.998756 0.00169459 0)
(0.998688 0.00177755 0)
(0.998634 0.00185343 0)
(0.99857 0.00193205 0)
(0.99853 0.00200766 0)
(0.998488 0.0020843 0)
(0.998466 0.00215761 0)
(0.998439 0.00222873 0)
(0.998422 0.0022955 0)
(0.998391 0.0023584 0)
(0.998357 0.00241703 0)
(0.998298 0.0024715 0)
(0.998214 0.0025223 0)
(0.998072 0.0025692 0)
(0.997843 0.00261306 0)
(0.997427 0.0026534 0)
(1.00003 -1.98467e-05 0)
(0.999934 -5.32568e-06 0)
(0.999931 5.00742e-05 0)
(0.999858 0.000108561 0)
(0.999833 0.000172606 0)
(0.99977 0.000218347 0)
(0.99976 0.00025143 0)
(0.999655 0.000313789 0)
(0.999667 0.000351214 0)
(0.999575 0.000413951 0)
(0.999521 0.000491929 0)
(0.999487 0.000545191 0)
(0.99944 0.000634524 0)
(0.999365 0.000717621 0)
(0.999318 0.000808305 0)
(0.999268 0.000894137 0)
(0.99923 0.000988684 0)
(0.999175 0.00108728 0)
(0.999137 0.0011802 0)
(0.999085 0.00128001 0)
(0.999059 0.00137036 0)
(0.999014 0.0014669 0)
(0.998983 0.00155307 0)
(0.998926 0.00164027 0)
(0.998879 0.00171594 0)
(0.998814 0.00179082 0)
(0.998768 0.00186076 0)
(0.998717 0.00193433 0)
(0.998689 0.00200644 0)
(0.998656 0.00207971 0)
(0.998641 0.0021492 0)
(0.998618 0.0022164 0)
(0.998603 0.00227853 0)
(0.998574 0.00233719 0)
(0.998541 0.00239104 0)
(0.998482 0.00244151 0)
(0.998399 0.00248791 0)
(0.998257 0.0025313 0)
(0.998028 0.00257128 0)
(0.997613 0.00260857 0)
(1.00003 -7.17277e-06 0)
(0.999944 8.44801e-06 0)
(0.999948 5.88225e-05 0)
(0.999879 0.000109671 0)
(0.999856 0.000175428 0)
(0.99979 0.000234145 0)
(0.999782 0.000275483 0)
(0.999679 0.000343521 0)
(0.999694 0.000386925 0)
(0.999612 0.000446854 0)
(0.99956 0.000530768 0)
(0.999531 0.000584467 0)
(0.999499 0.000671668 0)
(0.999429 0.000757645 0)
(0.999387 0.000848816 0)
(0.999344 0.000936796 0)
(0.999316 0.00102876 0)
(0.999269 0.00112676 0)
(0.999238 0.00121903 0)
(0.999192 0.0013158 0)
(0.999171 0.00140289 0)
(0.99913 0.00149265 0)
(0.999102 0.00157246 0)
(0.999046 0.00165228 0)
(0.999 0.00172249 0)
(0.998941 0.00179425 0)
(0.998906 0.00186207 0)
(0.998867 0.00193367 0)
(0.998849 0.00200237 0)
(0.998825 0.00207209 0)
(0.998816 0.00213671 0)
(0.998795 0.00219951 0)
(0.998782 0.00225639 0)
(0.998752 0.00231067 0)
(0.99872 0.00235966 0)
(0.998661 0.00240624 0)
(0.998578 0.00244842 0)
(0.998436 0.00248848 0)
(0.998208 0.00252484 0)
(0.997792 0.00255926 0)
(1.00003 1.00239e-06 0)
(0.999953 2.37017e-05 0)
(0.999962 6.95832e-05 0)
(0.999897 0.000118387 0)
(0.999878 0.000179897 0)
(0.999809 0.000243571 0)
(0.999807 0.000293389 0)
(0.999705 0.000371047 0)
(0.999719 0.000422509 0)
(0.999651 0.000482326 0)
(0.9996 0.000570604 0)
(0.999575 0.000627337 0)
(0.999557 0.000708488 0)
(0.999496 0.000794448 0)
(0.999459 0.000885892 0)
(0.999422 0.000973534 0)
(0.999404 0.00106377 0)
(0.999365 0.00115909 0)
(0.99934 0.00125015 0)
(0.999299 0.00134338 0)
(0.99928 0.00142632 0)
(0.999243 0.0015096 0)
(0.999216 0.00158216 0)
(0.999162 0.00165594 0)
(0.999121 0.00172176 0)
(0.99907 0.00179173 0)
(0.999046 0.001857 0)
(0.999018 0.00192631 0)
(0.99901 0.00199065 0)
(0.998993 0.00205622 0)
(0.998986 0.00211542 0)
(0.998967 0.00217354 0)
(0.998954 0.00222518 0)
(0.998925 0.00227511 0)
(0.998893 0.00231956 0)
(0.998834 0.00236238 0)
(0.998752 0.00240079 0)
(0.998611 0.00243762 0)
(0.998382 0.0024708 0)
(0.997967 0.00250239 0)
(1.00003 8.53555e-06 0)
(0.999958 3.65068e-05 0)
(0.999972 8.23092e-05 0)
(0.999911 0.000129793 0)
(0.999898 0.000188322 0)
(0.999831 0.000253636 0)
(0.999833 0.000305406 0)
(0.999735 0.00038854 0)
(0.999746 0.000452879 0)
(0.99969 0.000512744 0)
(0.999644 0.000609047 0)
(0.999617 0.000673475 0)
(0.999614 0.000748044 0)
(0.999563 0.000830971 0)
(0.999533 0.000920636 0)
(0.999501 0.00100669 0)
(0.999493 0.00109277 0)
(0.999462 0.00118471 0)
(0.999444 0.00127192 0)
(0.999405 0.0013622 0)
(0.999388 0.00144005 0)
(0.99935 0.00151839 0)
(0.999325 0.00158457 0)
(0.999276 0.00165486 0)
(0.999243 0.00171817 0)
(0.999203 0.00178701 0)
(0.999188 0.00184982 0)
(0.999169 0.00191578 0)
(0.999168 0.00197545 0)
(0.999155 0.00203591 0)
(0.999151 0.00209001 0)
(0.999133 0.00214313 0)
(0.99912 0.00219039 0)
(0.999091 0.00223594 0)
(0.999059 0.00227673 0)
(0.999001 0.00231571 0)
(0.998919 0.00235099 0)
(0.998779 0.00238446 0)
(0.99855 0.00241498 0)
(0.998135 0.00244364 0)
(1.00003 1.38328e-05 0)
(0.999963 4.72642e-05 0)
(0.99998 9.70303e-05 0)
(0.999924 0.000143883 0)
(0.999916 0.000202505 0)
(0.999849 0.000269131 0)
(0.999859 0.000320044 0)
(0.999769 0.00040408 0)
(0.999777 0.000477627 0)
(0.999735 0.000537872 0)
(0.999695 0.000635322 0)
(0.999663 0.000709411 0)
(0.999667 0.000782654 0)
(0.999629 0.000861015 0)
(0.999607 0.000948867 0)
(0.999579 0.00103236 0)
(0.999581 0.00111289 0)
(0.999558 0.00119838 0)
(0.999548 0.00127853 0)
(0.999511 0.0013633 0)
(0.999494 0.00143603 0)
(0.999455 0.00151085 0)
(0.999434 0.00157428 0)
(0.999393 0.00164271 0)
(0.99937 0.00170437 0)
(0.999338 0.00177048 0)
(0.999331 0.00183008 0)
(0.999318 0.00189097 0)
(0.999321 0.00194576 0)
(0.999312 0.0020001 0)
(0.99931 0.00204937 0)
(0.999294 0.00209699 0)
(0.999281 0.00214035 0)
(0.999253 0.0021813 0)
(0.99922 0.00221888 0)
(0.999163 0.00225386 0)
(0.999081 0.00228636 0)
(0.998942 0.00231628 0)
(0.998713 0.00234438 0)
(0.998299 0.00236994 0)
(1.00003 1.86864e-05 0)
(0.999966 5.77535e-05 0)
(0.999987 0.00011059 0)
(0.999934 0.000160425 0)
(0.999934 0.000217519 0)
(0.999869 0.000289263 0)
(0.999884 0.000342908 0)
(0.999804 0.000422886 0)
(0.999808 0.0005022 0)
(0.999776 0.000560943 0)
(0.999747 0.000651397 0)
(0.999712 0.000731039 0)
(0.999722 0.000806349 0)
(0.999695 0.000882996 0)
(0.999681 0.000968288 0)
(0.999657 0.0010531 0)
(0.999664 0.00113043 0)
(0.999648 0.0012126 0)
(0.999645 0.00128762 0)
(0.999613 0.0013686 0)
(0.999599 0.00143843 0)
(0.999563 0.00151074 0)
(0.999547 0.00157296 0)
(0.999512 0.00163859 0)
(0.999497 0.00169842 0)
(0.999472 0.00176055 0)
(0.999469 0.00181739 0)
(0.99946 0.00187335 0)
(0.999465 0.00192451 0)
(0.999459 0.00197349 0)
(0.999459 0.002019 0)
(0.999446 0.00206177 0)
(0.999433 0.00210196 0)
(0.999406 0.00213892 0)
(0.999373 0.00217391 0)
(0.999317 0.00220557 0)
(0.999235 0.00223583 0)
(0.999096 0.00226291 0)
(0.998867 0.00228902 0)
(0.998452 0.00231211 0)
(1.00002 2.19666e-05 0)
(0.999969 6.5826e-05 0)
(0.999993 0.000123297 0)
(0.999944 0.00017632 0)
(0.999952 0.000233574 0)
(0.999887 0.000307336 0)
(0.999908 0.000363894 0)
(0.999839 0.000439779 0)
(0.999841 0.00052168 0)
(0.999815 0.000583258 0)
(0.9998 0.000666383 0)
(0.999766 0.000745987 0)
(0.999779 0.000821579 0)
(0.999762 0.000893797 0)
(0.999761 0.000971251 0)
(0.999739 0.00105139 0)
(0.999752 0.00112257 0)
(0.999743 0.00119754 0)
(0.999747 0.0012649 0)
(0.99972 0.001338 0)
(0.999707 0.00140251 0)
(0.999673 0.00146878 0)
(0.999659 0.00152763 0)
(0.999632 0.00158787 0)
(0.999624 0.00164453 0)
(0.999606 0.00170139 0)
(0.999607 0.00175524 0)
(0.999601 0.00180632 0)
(0.999607 0.0018544 0)
(0.999604 0.00189851 0)
(0.999605 0.00194067 0)
(0.999594 0.00197885 0)
(0.999583 0.00201593 0)
(0.999557 0.00204905 0)
(0.999525 0.00208147 0)
(0.999469 0.00211003 0)
(0.999386 0.00213817 0)
(0.999248 0.00216275 0)
(0.999019 0.00218713 0)
(0.998604 0.00220827 0)
(1.00002 2.59044e-05 0)
(0.999972 7.43445e-05 0)
(1 0.000135166 0)
(0.999954 0.000191883 0)
(0.99997 0.00024791 0)
(0.999908 0.000322876 0)
(0.999931 0.00038322 0)
(0.999874 0.000454982 0)
(0.999877 0.000538271 0)
(0.999854 0.000604215 0)
(0.99985 0.000683552 0)
(0.999819 0.000763073 0)
(0.999833 0.000841112 0)
(0.999821 0.000915603 0)
(0.999828 0.000991516 0)
(0.99981 0.00107199 0)
(0.999826 0.00114463 0)
(0.99982 0.00121901 0)
(0.999831 0.00128536 0)
(0.999811 0.00135388 0)
(0.999803 0.00141513 0)
(0.999775 0.00147637 0)
(0.999766 0.00153296 0)
(0.999746 0.00158903 0)
(0.999745 0.00164286 0)
(0.999734 0.00169483 0)
(0.999738 0.00174496 0)
(0.999735 0.00179129 0)
(0.999742 0.00183576 0)
(0.99974 0.00187574 0)
(0.999742 0.00191443 0)
(0.999732 0.00194878 0)
(0.999722 0.00198231 0)
(0.999697 0.00201171 0)
(0.999666 0.00204049 0)
(0.999611 0.00206542 0)
(0.99953 0.0020899 0)
(0.999392 0.00211096 0)
(0.999164 0.00213174 0)
(0.998751 0.00214954 0)
(1.00002 2.56645e-05 0)
(0.999974 8.18537e-05 0)
(1 0.000145857 0)
(0.99996 0.000209363 0)
(0.999984 0.000263634 0)
(0.999927 0.000337953 0)
(0.999953 0.000398752 0)
(0.999907 0.000467718 0)
(0.999914 0.000545771 0)
(0.999894 0.000612433 0)
(0.999902 0.000685078 0)
(0.999879 0.000756562 0)
(0.999899 0.00082659 0)
(0.999894 0.000892161 0)
(0.999913 0.000955191 0)
(0.999904 0.0010208 0)
(0.999924 0.00107998 0)
(0.999921 0.00114012 0)
(0.999934 0.00119552 0)
(0.999915 0.00125425 0)
(0.999906 0.00131219 0)
(0.999881 0.00137302 0)
(0.999876 0.00143339 0)
(0.999863 0.00149189 0)
(0.999865 0.00154682 0)
(0.99986 0.00159609 0)
(0.999866 0.00164201 0)
(0.999865 0.00168298 0)
(0.999873 0.00172289 0)
(0.999872 0.00175937 0)
(0.999874 0.0017961 0)
(0.999864 0.00183 0)
(0.999852 0.00186425 0)
(0.999826 0.00189561 0)
(0.999792 0.00192696 0)
(0.999735 0.00195531 0)