/*--------------------------------*- C++ -*----------------------------------*\
| =========                 |                                                 |
| \\      /  F ield         | OpenFOAM: The Open Source CFD Toolbox           |
|  \\    /   O peration     | Version:  2312                                  |
|   \\  /    A nd           | Website:  www.openfoam.com                      |
|    \\/     M anipulation  |                                                 |
\*---------------------------------------------------------------------------*/
FoamFile
{
    version     2.0;
    format      ascii;
    arch        "LSB;label=32;scalar=64";
    class       volScalarField;
    location    "0.6";
    object      p;
}
// * * * * * * * * * * * * * * * * * * * * * * * * * * * * * * * * * * * * * //

dimensions      [0 2 -2 0 0 0 0];

internalField   nonuniform List<scalar> 
5600
(
8.57329e-09
0.000477314
0.000303264
0.000441836
0.000372386
0.00052737
0.000505779
0.000654298
0.000670769
0.000803705
0.000871425
0.000997182
0.00107593
0.00120945
0.00131872
0.00145067
0.00157417
0.00171253
0.0018588
0.00201057
0.00216484
0.00233127
0.00251004
0.00270185
0.00289736
0.00310328
0.00331439
0.00353826
0.00376973
0.00401617
0.00427375
0.00454944
0.0048381
0.00513744
0.00543577
0.00572396
0.00600894
0.00628838
0.006499
0.00646655
2.65582e-06
0.000474138
0.000305272
0.000439244
0.000374777
0.000523729
0.000508506
0.000650211
0.00067344
0.000798588
0.000873468
0.000992011
0.00107654
0.00120452
0.00131789
0.00144576
0.00157054
0.00170674
0.00185362
0.00200611
0.00215947
0.00232507
0.00250152
0.00268986
0.00288377
0.00308651
0.00329693
0.00351813
0.00374867
0.00398908
0.00423509
0.00448082
0.00471944
0.00495256
0.00518301
0.00540156
0.00558129
0.00567867
0.00562212
0.00528811
5.0268e-06
0.00047244
0.000306294
0.000438104
0.000375803
0.000521968
0.00050924
0.000648431
0.000673947
0.000796697
0.000873711
0.000990093
0.00107602
0.00120291
0.00131651
0.00144384
0.00156819
0.00170422
0.0018505
0.0020019
0.00215481
0.00231964
0.00249447
0.00268153
0.00287352
0.00307457
0.00328202
0.00349892
0.00372196
0.0039514
0.0041825
0.00440976
0.00462766
0.00484006
0.00504827
0.00524119
0.00539086
0.00545984
0.0053863
0.00506339
9.04051e-06
0.000468104
0.000308758
0.000434454
0.000378785
0.00051709
0.000512596
0.00064318
0.000677108
0.000790285
0.000876063
0.000983642
0.00107641
0.00119674
0.0013151
0.00143873
0.00156382
0.00169885
0.00184421
0.00199462
0.0021469
0.00230903
0.00248255
0.00266576
0.00285542
0.00305214
0.00325626
0.00346744
0.00368184
0.00389297
0.00409599
0.00429317
0.00448753
0.00467691
0.00485079
0.00499152
0.00507359
0.00506265
0.00490608
0.00451074
1.26548e-05
0.000464241
0.000310782
0.000431957
0.000380845
0.000513417
0.000514076
0.000639441
0.000678033
0.000786772
0.000876223
0.000980397
0.00107517
0.00119347
0.00131191
0.00143506
0.00155886
0.00169281
0.00183731
0.00198649
0.00213723
0.00229713
0.002468
0.00264791
0.00283366
0.003025
0.00322141
0.00342132
0.00362137
0.00381688
0.00400218
0.00417889
0.00435176
0.00451786
0.00466436
0.00477383
0.00482429
0.00478744
0.00461728
0.00422676
1.76491e-05
0.000458007
0.000314346
0.000427007
0.000384834
0.000506935
0.000518367
0.000632807
0.000681274
0.000779199
0.000877636
0.000974149
0.00107244
0.00119041
0.00130734
0.00142894
0.00155193
0.00168464
0.00182804
0.00197534
0.00212428
0.00228105
0.00244866
0.00262401
0.00280444
0.00298864
0.00317559
0.00336184
0.00354209
0.00371408
0.00388155
0.00404663
0.00420638
0.00435372
0.0044773
0.0045621
0.00458799
0.00452683
0.00433306
0.00392029
2.25747e-05
0.000451552
0.000317632
0.00042296
0.000388003
0.000501101
0.00052031
0.0006273
0.0006822
0.000774893
0.000876529
0.000970891
0.00106854
0.00118586
0.0013016
0.00142203
0.00154388
0.00167512
0.00181679
0.00196197
0.00210825
0.00226136
0.00242443
0.00259402
0.00276702
0.00294121
0.00311449
0.00328325
0.00344429
0.00360048
0.00375565
0.00390893
0.00405457
0.00418498
0.00429068
0.00435931
0.00437303
0.00430515
0.00410952
0.00369586
2.89003e-05
0.000442582
0.000322549
0.000416511
0.000393162
0.000492859
0.000525106
0.000619547
0.000683296
0.000768409
0.000873677
0.000968088
0.00106313
0.00117956
0.00129441
0.00141384
0.0015338
0.0016634
0.0018027
0.00194537
0.0020882
0.00223702
0.0023941
0.00255611
0.00271853
0.00287904
0.00303497
0.00318391
0.0033301
0.00347692
0.00362268
0.00376404
0.00389549
0.00401148
0.00410392
0.00416286
0.00417259
0.00410866
0.00392662
0.00353837
3.54744e-05
0.00043272
0.000327348
0.000410734
0.000397184
0.000484927
0.000526776
0.000613488
0.000683
0.000765156
0.000869773
0.000963197
0.00105689
0.00117233
0.00128619
0.00140375
0.00152185
0.00164901
0.00178583
0.00192496
0.00206371
0.00220713
0.00235763
0.00251015
0.00265829
0.00279748
0.00293289
0.00306958
0.00320719
0.00334337
0.00347596
0.00360411
0.00372663
0.00384168
0.00394386
0.00402316
0.00406127
0.00402618
0.00385609
0.00342746
4.34965e-05
0.000420196
0.000333498
0.000403048
0.000403189
0.00047531
0.000530394
0.000605581
0.000679017
0.000761685
0.000865747
0.000956614
0.00104973
0.00116337
0.00127658
0.00139117
0.00150767
0.00163139
0.00176579
0.00190009
0.00203372
0.00216916
0.00230983
0.00244815
0.0025784
0.00270378
0.00282993
0.00295691
0.00308138
0.00319768
0.00330212
0.003394
0.00347748
0.00356055
0.00364752
0.00372958
0.00380416
0.00389668
0.00407832
0.00448905
5.20749e-05
0.000406059
0.000339804
0.00039569
0.000406959
0.00046618
0.000529803
0.000603269
0.000675014
0.000756307
0.000859652
0.000949362
0.00104085
0.00115306
0.00126468
0.00137666
0.00149048
0.00161053
0.00174121
0.00187047
0.00199673
0.00212152
0.00224721
0.00236949
0.00248914
0.0026073
0.00272491
0.00283869
0.00294641
0.0030465
0.00314071
0.00323348
0.00333078
0.00343297
0.00353112
0.00362
0.00370764
0.00382055
0.00401198
0.00438327
6.21401e-05
0.000389192
0.000346343
0.000388351
0.000412323
0.000459072
0.000523475
0.000599293
0.000671199
0.000750067
0.000852355
0.000941076
0.00102991
0.00114097
0.00125026
0.00135965
0.00146983
0.0015857
0.00171103
0.00183325
0.00194839
0.00205882
0.00217204
0.00228578
0.00239787
0.0025075
0.00261466
0.00271716
0.00281453
0.00290876
0.00300489
0.00310467
0.00320123
0.00328793
0.00336428
0.003438
0.00352577
0.00365663
0.00388093
0.00429484
7.2883e-05
0.000370632
0.000352797
0.000380465
0.000412233
0.000455692
0.000517571
0.000593614
0.000665917
0.000743269
0.000844088
0.000931451
0.001017
0.0011264
0.00123334
0.0013393
0.00144516
0.00155573
0.00167399
0.0017857
0.00188761
0.00198707
0.00209319
0.00219958
0.00230042
0.00239566
0.00249055
0.00259003
0.00269562
0.00280168
0.00290105
0.00298919
0.00306529
0.00313238
0.00319636
0.00326776
0.00336271
0.00350625
0.00374237
0.00415877
8.51181e-05
0.000348786
0.000358109
0.000377863
0.000409688
0.000452007
0.00051177
0.000585876
0.000657934
0.000734754
0.000834122
0.000920282
0.00100207
0.00110898
0.00121341
0.00131504
0.00141538
0.00151837
0.00162648
0.0017258
0.0018189
0.00191266
0.00201301
0.00211399
0.00221044
0.00230156
0.00239004
0.00247675
0.00256219
0.00264884
0.0027391
0.00282732
0.00290537
0.002972
0.0030342
0.00310424
0.00319869
0.00334214
0.00357725
0.00399056
9.78506e-05
0.000327931
0.000359527
0.00037404
0.000404615
0.00044703
0.000506351
0.000579024
0.000649575
0.000723958
0.000821681
0.000906978
0.000984743
0.00108851
0.00118991
0.00128559
0.00137869
0.0014714
0.0015692
0.00166106
0.00174789
0.00183473
0.00192604
0.00201643
0.00210177
0.00218369
0.00226897
0.0023618
0.00245735
0.00254714
0.00262562
0.00269208
0.00274917
0.00280207
0.0028576
0.00292531
0.00301921
0.00316232
0.00339693
0.00381022
0.000111556
0.000306531
0.000355882
0.000371925
0.000400727
0.000442257
0.000499989
0.000570493
0.000639712
0.000711283
0.000806442
0.000890751
0.000964299
0.00106404
0.00116161
0.00124927
0.00133352
0.00141676
0.00150682
0.0015931
0.00167297
0.00175054
0.00183164
0.00191367
0.00199514
0.00207825
0.00216639
0.00225772
0.00234479
0.00242072
0.00248278
0.00253358
0.00257818
0.00262285
0.00267428
0.00274094
0.00283539
0.00297949
0.00321484
0.00362831
0.000125478
0.000286858
0.000347514
0.000368529
0.000396176
0.000436346
0.000492374
0.00056048
0.00062821
0.00069683
0.000788403
0.00087142
0.00094011
0.00103437
0.00112733
0.00120558
0.00128089
0.00135786
0.00144096
0.00152046
0.00159358
0.00166362
0.00173804
0.00181461
0.00189028
0.00196576
0.00204519
0.00212893
0.00220873
0.00227664
0.00233
0.00237244
0.00241012
0.00244981
0.00249802
0.00256281
0.00265621
0.00279969
0.00303461
0.0034479
0.000139377
0.000267696
0.000334636
0.000363936
0.000391713
0.000430148
0.000484343
0.000549539
0.000614683
0.000680001
0.000767229
0.000848039
0.000911232
0.000998055
0.00108571
0.00115584
0.00122373
0.00129527
0.0013715
0.00144294
0.001508
0.00156879
0.00163388
0.00170457
0.00177898
0.0018558
0.00193265
0.00200713
0.00207419
0.00213002
0.00217377
0.00220908
0.0022415
0.0022773
0.00232261
0.0023852
0.00247691
0.0026191
0.00285311
0.00326591
0.00015317
0.000251256
0.000316166
0.000356884
0.000386697
0.000423168
0.000475048
0.000537348
0.00059946
0.000660412
0.000741956
0.000819894
0.00087681
0.000953966
0.00103594
0.00110182
0.00116343
0.00122819
0.00129743
0.00136065
0.00141795
0.0014721
0.00153072
0.00159564
0.00166415
0.00173501
0.00180566
0.001873
0.00193182
0.00197905
0.00201492
0.00204377
0.00207125
0.00210345
0.0021462
0.00220691
0.00229718
0.00243823
0.00267139
0.00308374
0.000163675
0.000237407
0.000298273
0.000345163
0.000378965
0.000414884
0.000464399
0.000523608
0.000582729
0.000638289
0.000711626
0.00078484
0.000836555
0.00090509
0.000982055
0.00104409
0.00109895
0.00115521
0.00121701
0.00127316
0.00132295
0.00137028
0.00142188
0.00148107
0.0015452
0.00161158
0.00167569
0.0017347
0.00178486
0.00182434
0.00185376
0.00187735
0.00190069
0.00192974
0.00197026
0.00202943
0.00211861
0.00225882
0.00249135
0.00290339
0.000171017
0.000228124
0.00027977
0.000327368
0.00036764
0.000404834
0.000452066
0.000507446
0.000562902
0.000612987
0.000677251
0.000745644
0.000792874
0.000852168
0.000922837
0.000980248
0.00102845
0.00107585
0.0011296
0.00117974
0.00122299
0.0012641
0.00130971
0.00136412
0.00142446
0.00148617
0.00154314
0.00159282
0.00163358
0.00166527
0.00168906
0.00170861
0.00172893
0.00175564
0.0017944
0.00185229
0.00194056
0.00208008
0.0023121
0.00272387
0.000175403
0.00021868
0.000262389
0.000308168
0.000351716
0.000390985
0.000437097
0.000488414
0.000539555
0.000585286
0.000640493
0.000701879
0.000744836
0.000794605
0.00085728
0.000909663
0.000951441
0.000990399
0.00103543
0.00107994
0.00111803
0.00115398
0.00119496
0.00124624
0.00130426
0.00136078
0.00140896
0.0014477
0.00147819
0.00150208
0.00152096
0.00153762
0.00155612
0.00158139
0.00161893
0.00167579
0.00176328
0.00190222
0.00213385
0.00254547
0.000176474
0.00020952
0.000246262
0.000288394
0.000330856
0.000371529
0.000417826
0.000466044
0.000512483
0.000554447
0.000601364
0.000653594
0.000691624
0.000732599
0.00078566
0.000832304
0.000868264
0.00089976
0.000936034
0.000974618
0.00100924
0.00104227
0.00108039
0.00112854
0.00118209
0.00123143
0.00127013
0.00129835
0.00131938
0.00133623
0.00135093
0.00136556
0.00138313
0.00140772
0.00144449
0.00150053
0.00158728
0.00172568
0.00195699
0.00236857
0.000174066
0.000199685
0.000230061
0.000267856
0.000307715
0.000346941
0.000392969
0.000439434
0.000481077
0.00051888
0.000559615
0.00060182
0.000632729
0.000666373
0.000709319
0.000748485
0.000778702
0.000803951
0.000832623
0.000865206
0.000897394
0.000929511
0.000966205
0.00101021
0.00105646
0.00109655
0.00112568
0.00114488
0.00115824
0.00116945
0.00118081
0.00119394
0.00121101
0.0012353
0.0012716
0.00132697
0.00141302
0.00155087
0.00178189
0.00219348
0.000167914
0.000188589
0.000213592
0.000246677
0.000283124
0.000318513
0.000361417
0.000406199
0.000444309
0.000477626
0.000513799
0.000548059
0.000569615
0.000595538
0.000629666
0.000659683
0.000683094
0.000702746
0.000725632
0.000753235
0.000783604
0.000815993
0.000851713
0.000890026
0.000926681
0.000956312
0.000976285
0.000988198
0.000995957
0.00100319
0.0010121
0.00102406
0.00104071
0.0010648
0.00110076
0.00115558
0.00124103
0.00137842
0.00160926
0.00202098
0.00015838
0.000175122
0.00019579
0.000223952
0.000256815
0.000288383
0.000325803
0.000366115
0.000400402
0.000428611
0.000460309
0.000490952
0.00050462
0.000520764
0.000547189
0.000568818
0.000584019
0.000597192
0.000615365
0.000639528
0.000668324
0.000700012
0.00073263
0.000764152
0.000791405
0.000811536
0.000823748
0.000830118
0.000833997
0.000838487
0.000845494
0.000856274
0.000872233
0.000895878
0.00093141
0.000985787
0.0010708
0.00120784
0.00143843
0.00185012
0.000145262
0.000158956
0.000175994
0.000199187
0.000227766
0.00025552
0.00028719
0.000321872
0.000351754
0.000373897
0.000397577
0.000426007
0.00043684
0.000442822
0.000461406
0.000477098
0.000485293
0.00049166
0.000504799
0.000525823
0.000551693
0.000579965
0.000607768
0.000633099
0.000653214
0.000666445
0.000672857
0.000674907
0.000675712
0.000678039
0.000683498
0.000693188
0.00070838
0.000731455
0.000766523
0.00082052
0.000905279
0.00104226
0.00127307
0.00168527
0.000128251
0.000139439
0.000153243
0.000171754
0.000195498
0.000219073
0.000245158
0.000273715
0.000298755
0.000316323
0.000331615
0.000353709
0.000363495
0.000360719
0.000368543
0.000378736
0.000381827
0.000381258
0.000387282
0.000404221
0.000427973
0.000453172
0.000475654
0.000494506
0.000508468
0.000516666
0.000519162
0.000518102
0.000516371
0.000516635
0.00052049
0.00052896
0.000543194
0.000565422
0.000599682
0.000652934
0.00073714
0.000873851
0.00110472
0.0015173
0.000108194
0.000116579
0.000126956
0.000140863
0.000159591
0.00017867
0.000199336
0.000221757
0.000241465
0.000255584
0.000264284
0.000278268
0.000288063
0.000282794
0.000281496
0.000286479
0.00028768
0.00028363
0.000282344
0.00029174
0.000310162
0.000331117
0.000348269
0.000360363
0.000367834
0.00037127
0.00037089
0.000367943
0.000364588
0.000363197
0.000365504
0.000372643
0.000385805
0.000407086
0.000440397
0.0004926
0.000575625
0.0007111
0.000940798
0.00135231
8.28465e-05
8.96028e-05
9.73126e-05
0.000107177
0.000120872
0.000135163
0.000149924
0.000165745
0.000178902
0.000187598
0.000190018
0.000193107
0.000196435
0.00018748
0.00017568
0.000170272
0.000166411
0.000160432
0.000156075
0.000161378
0.000176866
0.000195491
0.000209849
0.000218008
0.000221346
0.00022133
0.000218564
0.000213859
0.000208931
0.000206092
0.000207508
0.000214771
0.00022924
0.000252799
0.000288968
0.00034422
0.000430286
0.000568721
0.000801341
0.00121586
5.61123e-05
5.73067e-05
6.13004e-05
6.80585e-05
7.85824e-05
8.90723e-05
9.92525e-05
0.000109458
0.000118093
0.000123438
0.000125002
0.000124921
0.000127056
0.000122615
0.000112563
0.000104448
9.74529e-05
8.73975e-05
7.35935e-05
6.06912e-05
5.26311e-05
5.07669e-05
5.49766e-05
6.39598e-05
7.36243e-05
7.9597e-05
7.92524e-05
7.21965e-05
6.03285e-05
4.66919e-05
3.47411e-05
2.7457e-05
2.7471e-05
3.7485e-05
6.14402e-05
0.000105927
0.00018276
0.000313648
0.000540798
0.000952572
2.07017e-05
2.38246e-05
2.55022e-05
2.73752e-05
3.03939e-05
3.43007e-05
3.81931e-05
4.12752e-05
4.2374e-05
4.00371e-05
3.37168e-05
2.31506e-05
1.22453e-05
-1.50008e-06
-2.00977e-05
-3.82232e-05
-5.27309e-05
-6.35888e-05
-7.09543e-05
-7.24112e-05
-6.64843e-05
-5.65411e-05
-4.82964e-05
-4.57349e-05
-4.89813e-05
-5.57869e-05
-6.35197e-05
-7.03519e-05
-7.50105e-05
-7.64902e-05
-7.3674e-05
-6.53261e-05
-4.987e-05
-2.50522e-05
1.28845e-05
7.04883e-05
0.000159515
0.000301623
0.000538878
0.000959356
-2.41418e-05
-1.61777e-05
-1.2592e-05
-1.15528e-05
-1.25643e-05
-1.5569e-05
-1.67522e-05
-1.67128e-05
-1.72123e-05
-1.80681e-05
-2.05313e-05
-2.57281e-05
-3.23468e-05
-3.93439e-05
-4.88099e-05
-5.93244e-05
-6.9704e-05
-7.99317e-05
-9.11913e-05
-0.00010349
-0.000116216
-0.000129124
-0.000142847
-0.000158197
-0.00017566
-0.000195344
-0.000217195
-0.000241302
-0.000268006
-0.000297727
-0.000331002
-0.000368603
-0.000411917
-0.000463353
-0.000527056
-0.000610023
-0.00072441
-0.000892204
-0.00115582
-0.0016038
-6.0282e-05
-5.94775e-05
-6.38115e-05
-7.01218e-05
-7.66733e-05
-8.45956e-05
-9.09686e-05
-9.81462e-05
-0.00010908
-0.000122634
-0.000138491
-0.000157479
-0.000179223
-0.000201358
-0.00022303
-0.000242772
-0.000258118
-0.000267189
-0.000269976
-0.000269625
-0.000269665
-0.000272568
-0.000279021
-0.000288329
-0.000298726
-0.000308273
-0.000315446
-0.000319385
-0.000319709
-0.000316228
-0.000308587
-0.000296024
-0.000277114
-0.00024946
-0.00020906
-0.000149148
-5.7881e-05
8.63869e-05
0.000325621
0.000747776
-0.00010838
-0.000107257
-0.000110886
-0.000116905
-0.000122423
-0.000129895
-0.000136681
-0.000142338
-0.000150616
-0.000160286
-0.000170125
-0.000180543
-0.000192529
-0.000205585
-0.000219286
-0.00023398
-0.000249811
-0.000267089
-0.00028589
-0.000306441
-0.00032867
-0.000352613
-0.000378328
-0.000406091
-0.00043612
-0.000468377
-0.000502621
-0.000538663
-0.000576466
-0.000616254
-0.000658525
-0.00070416
-0.000754604
-0.000812249
-0.000881084
-0.000967893
-0.00108454
-0.0012527
-0.00151433
-0.00195739
-0.000159934
-0.000162452
-0.000171767
-0.000186048
-0.000200859
-0.000216929
-0.000234389
-0.000251447
-0.00027074
-0.000292979
-0.000317001
-0.000341464
-0.000365619
-0.000388644
-0.000408454
-0.000423173
-0.000431637
-0.000435878
-0.000439566
-0.000445764
-0.000455291
-0.000467277
-0.000480049
-0.000492044
-0.000502134
-0.000509702
-0.000514388
-0.000515998
-0.000514396
-0.000509409
-0.000500661
-0.000487387
-0.000468173
-0.000440603
-0.000400629
-0.000341424
-0.000251103
-0.000108011
0.000129801
0.000550276
-0.000210997
-0.00021205
-0.00021785
-0.000227787
-0.000238818
-0.000249982
-0.000262525
-0.000275231
-0.00028827
-0.000302865
-0.000318884
-0.000335468
-0.000351919
-0.0003689
-0.000386838
-0.000405994
-0.000426089
-0.000447261
-0.000469829
-0.000494209
-0.000520445
-0.000548395
-0.000577907
-0.000609049
-0.000641837
-0.000676219
-0.000712054
-0.000749198
-0.000787621
-0.000827524
-0.000869421
-0.000914243
-0.000963509
-0.00101967
-0.00108676
-0.00117157
-0.00128598
-0.00145164
-0.00171054
-0.00215067
-0.000278072
-0.000283374
-0.000296465
-0.000315747
-0.000338449
-0.000361687
-0.000386199
-0.000412062
-0.000437761
-0.000463489
-0.000488965
-0.000512508
-0.000531504
-0.000545038
-0.000554126
-0.000561403
-0.000568897
-0.000577812
-0.000588548
-0.000600836
-0.00061375
-0.000626098
-0.000636829
-0.000645291
-0.000651347
-0.000655109
-0.000656686
-0.000656063
-0.00065307
-0.000647369
-0.000638394
-0.000625228
-0.000606366
-0.000579354
-0.000540137
-0.000481888
-0.00039272
-0.000250975
-1.47023e-05
0.000404049
-0.000324069
-0.000324693
-0.000330785
-0.000341566
-0.000356133
-0.000371708
-0.000387786
-0.00040576
-0.000424578
-0.000444509
-0.000466568
-0.00048975
-0.000511158
-0.000529701
-0.000546447
-0.000562633
-0.00057877
-0.000595035
-0.000611943
-0.00063006
-0.000649711
-0.000670826
-0.000693286
-0.000717107
-0.000742387
-0.000769185
-0.000797528
-0.000827403
-0.000858896
-0.000892272
-0.000928097
-0.000967327
-0.00101151
-0.00106311
-0.00112619
-0.00120755
-0.00131909
-0.00148251
-0.00173986
-0.00217921
-0.000410063
-0.000415925
-0.000430924
-0.000453332
-0.000481412
-0.000511201
-0.000541217
-0.000571086
-0.00059813
-0.000621709
-0.000642803
-0.000660603
-0.000674555
-0.000685255
-0.000694017
-0.0007012
-0.000706724
-0.000710667
-0.000713527
-0.000715609
-0.00071686
-0.000716958
-0.000715693
-0.000713
-0.000708957
-0.00070362
-0.000696976
-0.000688906
-0.00067923
-0.000667646
-0.000653646
-0.00063633
-0.0006142
-0.00058478
-0.000544019
-0.000485105
-0.000396212
-0.000255778
-2.20116e-05
0.000392792
0.00622819
0.00630164
0.00658265
0.00676178
0.00676044
0.00658345
0.00628998
0.00595043
0.00561705
0.00531837
0.00506549
0.00485841
0.00468939
0.00454745
0.00442182
0.00430395
0.004188
0.00407068
0.00395064
0.00382789
0.00370325
0.00357792
0.00345316
0.00332998
0.00320909
0.00309069
0.00297465
0.00286032
0.0027471
0.00263397
0.00252033
0.0024052
0.00228831
0.00216886
0.00204683
0.00192146
0.00179257
0.00165926
0.00152075
0.00137636
0.00122468
0.00106582
0.000897646
0.000720871
0.000531946
0.000329951
0.000109568
-0.000131172
-0.000394862
-0.00069207
-0.00101024
-0.00134752
-0.00172611
-0.00219583
-0.00278661
-0.00343892
-0.00409422
-0.00478401
-0.00554188
-0.00630157
-0.00692917
-0.00726313
-0.0072528
-0.00700523
-0.00660839
-0.00615567
-0.00575232
-0.0054663
-0.00529357
-0.00518274
-0.00514925
-0.00517501
-0.00522746
-0.00530191
-0.00537909
-0.00546889
-0.00556479
-0.00565056
-0.0057534
-0.00585951
-0.00594788
-0.00605226
-0.00615924
-0.0062393
-0.00631731
-0.00639985
-0.006468
-0.00652478
-0.00657533
-0.00662141
-0.00666505
-0.00670123
-0.00673494
-0.00677305
-0.00681326
-0.0068536
-0.0068979
-0.00694241
-0.00698715
-0.00702763
0.00491727
0.00499126
0.00544398
0.00588606
0.00615248
0.00620341
0.00606343
0.00580449
0.00550308
0.00521284
0.0049608
0.00475559
0.00459363
0.00446337
0.00435117
0.00424562
0.00413929
0.00402854
0.00391256
0.00379224
0.00366928
0.00354546
0.00342224
0.0033006
0.00318117
0.00306407
0.00294918
0.00283584
0.00272346
0.00261097
0.00249787
0.00238309
0.00226648
0.00214709
0.00202507
0.00189973
0.00177102
0.00163796
0.00149974
0.00135575
0.00120438
0.00104596
0.000878059
0.00070167
0.000512946
0.000311352
9.12773e-05
-0.000148802
-0.000411445
-0.000707738
-0.00102507
-0.00136165
-0.00173811
-0.00220383
-0.00278976
-0.00343716
-0.00408511
-0.00476619
-0.00551576
-0.00626861
-0.00689295
-0.00722787
-0.00722253
-0.00698167
-0.00659153
-0.00614321
-0.00574168
-0.00545709
-0.00528563
-0.00517594
-0.00514334
-0.00516949
-0.0052223
-0.0052971
-0.00537459
-0.00546503
-0.00556139
-0.00564747
-0.00575085
-0.00585737
-0.00594599
-0.00605072
-0.00615806
-0.00623833
-0.00631655
-0.00639928
-0.00646758
-0.00652448
-0.00657512
-0.00662126
-0.00666495
-0.00670116
-0.00673489
-0.00677301
-0.00681322
-0.00685357
-0.00689788
-0.0069424
-0.00698714
-0.00702761
0.00472645
0.00483157
0.00532599
0.00581283
0.00612004
0.00620375
0.0060843
0.00583233
0.00552719
0.00522733
0.00496404
0.00474861
0.00457944
0.0044456
0.00433269
0.00422794
0.00412257
0.00401214
0.00389545
0.00377351
0.00364842
0.00352245
0.00339738
0.00327435
0.00315392
0.00303615
0.00292078
0.00280709
0.00269437
0.00258153
0.00246802
0.00235283
0.00223586
0.00211625
0.00199409
0.00186831
0.00173892
0.00160508
0.00146619
0.00132168
0.00117001
0.0010114
0.000843346
0.000666722
0.000477647
0.000275801
5.61318e-05
-0.000183669
-0.000444745
-0.000738377
-0.0010539
-0.00139184
-0.00177007
-0.00222817
-0.00279845
-0.00343005
-0.00406471
-0.00472711
-0.00544858
-0.00617167
-0.00677645
-0.00711363
-0.00713125
-0.00691928
-0.00655376
-0.00612616
-0.00574011
-0.00546269
-0.00529318
-0.00518289
-0.00514881
-0.00517368
-0.00522508
-0.00529895
-0.00537562
-0.00546509
-0.005561
-0.0056467
-0.00574959
-0.0058559
-0.00594436
-0.00604891
-0.0061562
-0.00623653
-0.00631485
-0.00639772
-0.0064662
-0.00652331
-0.00657414
-0.00662047
-0.00666436
-0.00670074
-0.00673459
-0.00677281
-0.0068131
-0.00685351
-0.00689785
-0.0069424
-0.0069872
-0.00702766
0.00413723
0.00422161
0.00471082
0.00521838
0.00556916
0.00571472
0.00566579
0.0054811
0.00523222
0.00497559
0.00474403
0.00455124
0.00439881
0.00427923
0.00418032
0.00408999
0.00399903
0.00390207
0.00379714
0.00368475
0.00356703
0.00344669
0.00332619
0.00320719
0.00309063
0.00297657
0.00286474
0.00275424
0.00264435
0.00253381
0.00242215
0.00230836
0.00219248
0.00207368
0.00195212
0.00182699
0.00169819
0.00156513
0.00142683
0.00128315
0.00113201
0.000974128
0.00080638
0.000630152
0.000441096
0.000239496
2.03978e-05
-0.000219057
-0.000478296
-0.00076931
-0.00108363
-0.0014229
-0.00180109
-0.00225029
-0.00280197
-0.00341648
-0.00403663
-0.00467786
-0.00537053
-0.00606312
-0.00664827
-0.00698605
-0.00702494
-0.00684175
-0.00650341
-0.00609878
-0.00572639
-0.00545495
-0.00528753
-0.00517911
-0.00514591
-0.0051698
-0.00522034
-0.00529371
-0.0053699
-0.00545955
-0.00555563
-0.00564138
-0.00574454
-0.00585116
-0.00593984
-0.00604453
-0.00615201
-0.00623269
-0.0063114
-0.00639458
-0.00646339
-0.00652092
-0.00657215
-0.00661879
-0.00666295
-0.00669961
-0.00673373
-0.00677215
-0.00681258
-0.00685311
-0.00689756
-0.00694223
-0.00698715
-0.00702764
0.00387212
0.00397508
0.00448941
0.00502509
0.00540482
0.00557886
0.00555606
0.00539317
0.00516073
0.0049154
0.004691
0.00450236
0.00435233
0.00423475
0.00413838
0.00405134
0.0039641
0.00387074
0.00376874
0.00365824
0.00354128
0.00342078
0.00329962
0.00317993
0.00306291
0.0029487
0.00283691
0.00272644
0.00261643
0.00250557
0.00239336
0.00227884
0.00216214
0.00204255
0.00192029
0.00179464
0.0016654
0.00153196
0.00139328
0.00124921
0.00109771
0.000939448
0.000771443
0.00059473
0.000405506
0.000203449
-1.53207e-05
-0.000254417
-0.000512494
-0.000801378
-0.0011145
-0.00145328
-0.00183049
-0.00227128
-0.00280507
-0.00340127
-0.0040054
-0.00462466
-0.00528732
-0.00594799
-0.0065096
-0.0068434
-0.00690108
-0.00674921
-0.00644244
-0.00606441
-0.00571169
-0.0054514
-0.00528913
-0.00518263
-0.00514913
-0.00517168
-0.00522053
-0.00529286
-0.00536819
-0.00545676
-0.00555239
-0.00563772
-0.00574015
-0.00584654
-0.00593511
-0.00603933
-0.0061467
-0.00622766
-0.00630649
-0.00638979
-0.00645898
-0.00651702
-0.00656872
-0.0066158
-0.00666044
-0.00669761
-0.00673216
-0.00677093
-0.00681164
-0.00685241
-0.00689704
-0.0069419
-0.00698704
-0.0070276
0.00355059
0.00364503
0.00415482
0.00469125
0.00507665
0.00526072
0.00525122
0.00510354
0.00488738
0.00465888
0.00445153
0.00427983
0.00414629
0.00404436
0.00396247
0.00388856
0.00381312
0.00373035
0.00363789
0.00353603
0.00342696
0.0033137
0.00319927
0.00308582
0.00297465
0.00286586
0.00275902
0.00265291
0.00254667
0.00243905
0.00232962
0.00221757
0.00210296
0.00198536
0.00186477
0.00174084
0.00161296
0.001481
0.00134345
0.00120061
0.00105011
0.000892845
0.000725774
0.000549736
0.0003614
0.000159823
-5.75552e-05
-0.000295581
-0.00055196
-0.000837835
-0.00114845
-0.00148575
-0.00186105
-0.00229358
-0.00280866
-0.00338428
-0.00397134
-0.00456844
-0.0052014
-0.00582949
-0.00636783
-0.00669889
-0.00677605
-0.00665614
-0.00638118
-0.00603068
-0.00569683
-0.00544572
-0.00528651
-0.00518101
-0.00514792
-0.00516921
-0.00521642
-0.00528782
-0.00536228
-0.00545038
-0.00554598
-0.00563112
-0.00573333
-0.00583987
-0.00592856
-0.00603254
-0.00613991
-0.00622124
-0.00630042
-0.00638401
-0.00645366
-0.00651229
-0.00656456
-0.00661213
-0.00665728
-0.00669501
-0.00673007
-0.00676925
-0.00681029
-0.00685136
-0.0068962
-0.00694133
-0.00698673
-0.00702744
0.00332368
0.00341794
0.0039267
0.00445858
0.00483755
0.0050156
0.00500349
0.00485947
0.0046542
0.00444305
0.00425791
0.00411099
0.00400221
0.00392232
0.00385808
0.00379711
0.00373063
0.00365403
0.00356618
0.0034684
0.00336359
0.00325497
0.00314538
0.0030366
0.00292955
0.00282407
0.00271964
0.0026151
0.00250972
0.00240251
0.00229322
0.00218124
0.00206661
0.00194899
0.00182827
0.00170424
0.00157617
0.00144402
0.00130625
0.00116318
0.00101254
0.00085499
0.000687881
0.000511525
0.000323219
0.000121537
-9.53328e-05
-0.000332602
-0.000587862
-0.000870959
-0.0011795
-0.00151505
-0.00188742
-0.00231145
-0.00280807
-0.00336256
-0.00393223
-0.0045079
-0.00511085
-0.00570668
-0.00622294
-0.00655054
-0.0066439
-0.00655409
-0.00631144
-0.00598896
-0.00567531
-0.00543585
-0.00528246
-0.00517966
-0.00514711
-0.00516779
-0.00521383
-0.00528444
-0.00535837
-0.00544569
-0.00554105
-0.00562593
-0.00572744
-0.00583383
-0.0059225
-0.00602594
-0.0061331
-0.00621478
-0.00629414
-0.00637784
-0.00644791
-0.00650714
-0.00655996
-0.00660803
-0.00665373
-0.00669207
-0.0067277
-0.00676733
-0.00680875
-0.00685016
-0.00689527
-0.00694069
-0.00698638
-0.00702726
0.00319032
0.0033065
0.0038308
0.00435617
0.00470926
0.00484715
0.00479174
0.00461514
0.00439534
0.00418643
0.00401447
0.0038871
0.00379944
0.0037382
0.00368806
0.00363662
0.00357635
0.00350422
0.00342049
0.00332764
0.00322909
0.00312794
0.00302648
0.00292581
0.00282626
0.0027273
0.00262825
0.00252813
0.00242635
0.00232232
0.00221587
0.00210673
0.00199473
0.00187974
0.00176137
0.00163961
0.00151353
0.0013832
0.00124711
0.00110552
0.000956458
0.000800137
0.000634508
0.00045919
0.000272301
7.17613e-05
-0.000143457
-0.00037866
-0.000631851
-0.000911393
-0.00121648
-0.00154875
-0.0019163
-0.00233112
-0.00280953
-0.0033417
-0.00389277
-0.0044463
-0.00501938
-0.00558398
-0.00607798
-0.0064009
-0.00650902
-0.00644901
-0.00623983
-0.00594685
-0.00565436
-0.00542709
-0.00527902
-0.00517821
-0.00514627
-0.00516599
-0.00521049
-0.00528015
-0.00535296
-0.00543931
-0.00553447
-0.00561903
-0.00572002
-0.00582641
-0.00591512
-0.00601815
-0.00612525
-0.00620733
-0.00628699
-0.00637095
-0.00644151
-0.0065014
-0.00655486
-0.0066035
-0.00664981
-0.00668882
-0.00672506
-0.00676521
-0.00680704
-0.00684882
-0.00689418
-0.00693992
-0.00698592
-0.007027
0.00300409
0.00305732
0.00350773
0.00396822
0.00428029
0.00440932
0.00437806
0.00424848
0.00408443
0.00392897
0.00380207
0.0037081
0.00364076
0.00358834
0.00353988
0.003488
0.00342877
0.00336093
0.00328509
0.00320296
0.00311657
0.00302758
0.00293714
0.00284574
0.00275347
0.00265999
0.00256497
0.00246792
0.00236858
0.00226668
0.00216211
0.00205476
0.00194436
0.00183081
0.00171364
0.00159284
0.00146755
0.00133775
0.00120218
0.00106087
0.000912276
0.000756211
0.000591016
0.000415978
0.000229557
2.96362e-05
-0.00018468
-0.000418272
-0.000669865
-0.000946289
-0.0012478
-0.00157666
-0.00193889
-0.00234428
-0.0028053
-0.00331494
-0.00384622
-0.00437826
-0.00492281
-0.00545656
-0.00592833
-0.00624663
-0.00636791
-0.00633611
-0.00616046
-0.00589733
-0.00562665
-0.00541247
-0.00527158
-0.0051741
-0.00514308
-0.00516245
-0.00520569
-0.00527457
-0.00534697
-0.00543255
-0.00552759
-0.00561209
-0.00571253
-0.0058189
-0.00590775
-0.00601029
-0.00611719
-0.0061997
-0.00627965
-0.00636378
-0.00643484
-0.00649542
-0.00654951
-0.00659872
-0.00664566
-0.00668538
-0.00672226
-0.00676294
-0.0068052
-0.00684739
-0.00689306
-0.00693912
-0.00698545
-0.00702676
0.00488269
0.00480207
0.00431409
0.00380824
0.0034447
0.00325866
0.00322859
0.0032932