/*--------------------------------*- C++ -*----------------------------------*\
| =========                 |                                                 |
| \\      /  F ield         | OpenFOAM: The Open Source CFD Toolbox           |
|  \\    /   O peration     | Version:  2312                                  |
|   \\  /    A nd           | Website:  www.openfoam.com                      |
|    \\/     M anipulation  |                                                 |
\*---------------------------------------------------------------------------*/
FoamFile
{
    version     2.0;
    format      ascii;
    arch        "LSB;label=32;scalar=64";
    class       surfaceScalarField;
    location    "0.6";
    object      phi;
}
// * * * * * * * * * * * * * * * * * * * * * * * * * * * * * * * * * * * * * //

dimensions      [0 3 -1 0 0 0 0];

oriented        oriented;

internalField   nonuniform List<scalar> 
11020
(
3.87758e-06
-6.56574e-08
3.87716e-06
5.44621e-08
3.87749e-06
-4.72063e-08
3.87791e-06
3.29673e-08
3.8776e-06
-3.03373e-08
3.87769e-06
2.7006e-08
3.87719e-06
-1.7529e-08
3.87743e-06
1.75897e-08
3.87686e-06
-1.41082e-08
3.87709e-06
9.94688e-09
3.87619e-06
-8.49345e-09
3.87625e-06
8.38399e-09
3.87533e-06
-3.23847e-09
3.87534e-06
6.84333e-09
3.87448e-06
-1.0537e-09
3.8744e-06
5.35986e-09
3.87365e-06
-2.22023e-10
3.87343e-06
4.24516e-09
3.87271e-06
4.96389e-10
3.87236e-06
3.95057e-09
3.8716e-06
1.20185e-09
3.87111e-06
3.86949e-09
3.87032e-06
1.83445e-09
3.86972e-06
3.8993e-09
3.86889e-06
2.44967e-09
3.8682e-06
3.96984e-09
3.86734e-06
2.91059e-09
3.86657e-06
3.99442e-09
3.86567e-06
3.21601e-09
3.86478e-06
4.01526e-09
3.86371e-06
3.53856e-09
3.86255e-06
4.3173e-09
3.86115e-06
4.32998e-09
3.85957e-06
5.38915e-09
3.85776e-06
5.8794e-09
3.85579e-06
7.03447e-09
3.85359e-06
7.68962e-09
3.85115e-06
8.97865e-09
3.84843e-06
1.01346e-08
1.19039e-08
3.84545e-06
4.18305e-06
-6.28506e-08
4.1874e-06
5.01146e-08
4.18386e-06
-4.36677e-08
4.18829e-06
2.85385e-08
4.18451e-06
-2.65546e-08
4.18784e-06
2.36762e-08
4.18465e-06
-1.43406e-08
4.18764e-06
1.4599e-08
4.18463e-06
-1.10981e-08
4.18699e-06
7.58525e-09
4.18398e-06
-5.47881e-09
4.18565e-06
6.7061e-09
4.18327e-06
-8.56692e-10
4.18452e-06
5.59564e-09
4.18259e-06
8.7463e-10
4.18346e-06
4.48882e-09
4.18198e-06
1.26276e-09
4.18243e-06
3.79711e-09
4.18114e-06
1.78265e-09
4.1812e-06
3.8915e-09
4.17991e-06
2.495e-09
4.17969e-06
4.08948e-09
4.17843e-06
3.0915e-09
4.17803e-06
4.30046e-09
4.17685e-06
3.62568e-09
4.17631e-06
4.51557e-09
4.17517e-06
4.05009e-09
4.17445e-06
4.7123e-09
4.17323e-06
4.43064e-09
4.17224e-06
5.0065e-09
4.1708e-06
4.98268e-09
4.16945e-06
5.67069e-09
4.16778e-06
5.99737e-09
4.16632e-06
6.85029e-09
4.16479e-06
7.40412e-09
4.16353e-06
8.30054e-09
4.16227e-06
8.94317e-09
4.16137e-06
9.88373e-09
4.16078e-06
1.07198e-08
1.17831e-08
4.1609e-06
4.51662e-06
-5.94056e-08
4.52067e-06
4.60594e-08
4.51679e-06
-3.97892e-08
4.52055e-06
2.47794e-08
4.51696e-06
-2.29631e-08
4.51967e-06
2.09706e-08
4.51697e-06
-1.16464e-08
4.51953e-06
1.20433e-08
4.51683e-06
-8.40138e-09
4.51861e-06
5.80629e-09
4.51597e-06
-2.83573e-09
4.51707e-06
5.5999e-09
4.51517e-06
1.04512e-09
4.51596e-06
4.80484e-09
4.51446e-06
2.38221e-09
4.515e-06
3.94245e-09
4.51381e-06
2.45601e-09
4.51399e-06
3.61634e-09
4.51286e-06
2.90798e-09
4.51272e-06
4.03181e-09
4.51156e-06
3.65815e-09
4.51117e-06
4.48319e-09
4.50998e-06
4.28336e-09
4.50941e-06
4.86251e-09
4.50826e-06
4.77933e-09
4.50757e-06
5.2007e-09
4.50644e-06
5.18671e-09
4.50563e-06
5.5247e-09
4.50446e-06
5.59833e-09
4.50339e-06
6.07621e-09
4.50191e-06
6.45595e-09
4.50046e-06
7.12766e-09
4.49878e-06
7.67811e-09
4.49731e-06
8.32075e-09
4.49588e-06
8.83465e-09
4.49471e-06
9.46478e-09
4.4936e-06
1.00499e-08
4.49277e-06
1.07217e-08
4.49217e-06
1.13152e-08
1.188e-08
4.49207e-06
4.8779e-06
-5.63555e-08
4.88121e-06
4.27487e-08
4.87758e-06
-3.61615e-08
4.88045e-06
2.19083e-08
4.87733e-06
-1.9845e-08
4.8796e-06
1.87018e-08
4.87712e-06
-9.16125e-09
4.87924e-06
9.92304e-09
4.87675e-06
-5.91868e-09
4.87806e-06
4.50287e-09
4.87591e-06
-6.87417e-10
4.87652e-06
4.99406e-09
4.87507e-06
2.48776e-09
4.87522e-06
4.65472e-09
4.87431e-06
3.29732e-09
4.87421e-06
4.04084e-09
4.87356e-06
3.10535e-09
4.87323e-06
3.95066e-09
4.87245e-06
3.68351e-09
4.87189e-06
4.59363e-09
4.87097e-06
4.57892e-09
4.87024e-06
5.21234e-09
4.86924e-06
5.27736e-09
4.8684e-06
5.71165e-09
4.86737e-06
5.80349e-09
4.86641e-06
6.16146e-09
4.86527e-06
6.32731e-09
4.86406e-06
6.73177e-09
4.86265e-06
7.01031e-09
4.86126e-06
7.46759e-09
4.85981e-06
7.90147e-09
4.85843e-06
8.5075e-09
4.8571e-06
9.01025e-09
4.85588e-06
9.54515e-09
4.85476e-06
9.95703e-09
4.85382e-06
1.04016e-08
4.85309e-06
1.07802e-08
4.85264e-06
1.11679e-08
4.8525e-06
1.14613e-08
1.16765e-08
4.8527e-06
5.26761e-06
-5.33147e-08
5.27091e-06
3.9446e-08
5.26719e-06
-3.24419e-08
5.26985e-06
1.9245e-08
5.26678e-06
-1.67744e-08
5.26927e-06
1.62171e-08
5.26659e-06
-6.48013e-09
5.2685e-06
8.0113e-09
5.26591e-06
-3.32748e-09
5.26712e-06
3.2863e-09
5.26519e-06
1.24178e-09
5.26581e-06
4.38123e-09
5.26444e-06
3.85068e-09
5.26439e-06
4.70348e-09
5.26347e-06
4.22249e-09
5.26307e-06
4.44103e-09
5.26231e-06
3.86582e-09
5.2619e-06
4.35828e-09
5.26115e-06
4.43749e-09
5.2606e-06
5.13562e-09
5.25969e-06
5.49547e-09
5.25896e-06
5.9453e-09
5.25794e-06
6.28877e-09
5.25704e-06
6.61211e-09
5.25596e-06
6.8823e-09
5.25493e-06
7.19946e-09
5.25379e-06
7.46818e-09
5.25264e-06
7.88133e-09
5.25129e-06
8.36063e-09
5.24978e-06
8.9748e-09
5.24817e-06
9.5118e-09
5.24667e-06
1.00031e-08
5.24533e-06
1.03567e-08
5.2442e-06
1.06725e-08
5.24321e-06
1.09411e-08
5.24242e-06
1.11928e-08
5.2418e-06
1.14039e-08
5.24141e-06
1.15557e-08
5.24126e-06
1.16164e-08
1.16055e-08
5.24133e-06
5.68825e-06
-5.01085e-08
5.69173e-06
3.59669e-08
5.68787e-06
-2.85842e-08
5.6905e-06
1.66201e-08
5.68737e-06
-1.36466e-08
5.69001e-06
1.35748e-08
5.68737e-06
-3.83209e-09
5.68896e-06
6.42136e-09
5.68645e-06
-8.23348e-10
5.68727e-06
2.46422e-09
5.68588e-06
2.63465e-09
5.68613e-06
4.13269e-09
5.68542e-06
4.55857e-09
5.68492e-06
5.2061e-09
5.68395e-06
5.18859e-09
5.68326e-06
5.13157e-09
5.68242e-06
4.7033e-09
5.68185e-06
4.92966e-09
5.68113e-06
5.1604e-09
5.68052e-06
5.74309e-09
5.67965e-06
6.36409e-09
5.67888e-06
6.71621e-09
5.67791e-06
7.26596e-09
5.67696e-06
7.56196e-09
5.67587e-06
7.9702e-09
5.67471e-06
8.35595e-09
5.67338e-06
8.80405e-09
5.67192e-06
9.3376e-09
5.67039e-06
9.89568e-09
5.6689e-06
1.04557e-08
5.66752e-06
1.08975e-08
5.66624e-06
1.12801e-08
5.66504e-06
1.15546e-08
5.66396e-06
1.17545e-08
5.66302e-06
1.18847e-08
5.66226e-06
1.19469e-08
5.66173e-06
1.19372e-08
5.66145e-06
1.18392e-08
5.6614e-06
1.16636e-08
1.13966e-08
5.66161e-06
6.14246e-06
-4.6703e-08
6.14614e-06
3.22898e-08
6.14211e-06
-2.45566e-08
6.14482e-06
1.3919e-08
6.14156e-06
-1.03944e-08
6.14425e-06
1.08848e-08
6.14163e-06
-1.20733e-09
6.14311e-06
4.93759e-09
6.14066e-06
1.6331e-09
6.1412e-06
1.92323e-09
6.14004e-06
3.79427e-09
6.14008e-06
4.0933e-09
6.13947e-06
5.16906e-09
6.13896e-06
5.71356e-09
6.13798e-06
6.17142e-09
6.13722e-06
5.88262e-09
6.13627e-06
5.65862e-09
6.13557e-06
5.62731e-09
6.13473e-06
6.00493e-09
6.13404e-06
6.42984e-09
6.13313e-06
7.27705e-09
6.13232e-06
7.52111e-09
6.13133e-06
8.25792e-09
6.13035e-06
8.54273e-09
6.12923e-06
9.09294e-09
6.12805e-06
9.52846e-09
6.12669e-06
1.0167e-08
6.12519e-06
1.08346e-08
6.12363e-06
1.14581e-08
6.12218e-06
1.19095e-08
6.12083e-06
1.2244e-08
6.11963e-06
1.24829e-08
6.11851e-06
1.26748e-08
6.11748e-06
1.2788e-08
6.11655e-06
1.28083e-08
6.1158e-06
1.26974e-08
6.11523e-06
1.25059e-08
6.11489e-06
1.21801e-08
6.11478e-06
1.17711e-08
1.1152e-08
6.11503e-06
6.63298e-06
-4.31224e-08
6.63681e-06
2.84635e-08
6.63267e-06
-2.04161e-08
6.63537e-06
1.12143e-08
6.63215e-06
-7.17711e-09
6.63463e-06
8.41387e-09
6.63221e-06
1.20497e-09
6.6334e-06
3.75233e-09
6.6314e-06
3.63237e-09
6.63139e-06
1.93537e-09
6.63057e-06
4.60817e-09
6.63038e-06
4.28667e-09
6.62955e-06
5.99987e-09
6.62915e-06
6.11111e-09
6.62817e-06
7.14764e-09
6.62754e-06
6.51296e-09
6.62644e-06
6.76473e-09
6.62571e-06
6.3527e-09
6.62464e-06
7.0813e-09
6.6239e-06
7.16844e-09
6.62284e-06
8.33817e-09
6.62201e-06
8.3442e-09
6.62093e-06
9.34467e-09
6.61997e-06
9.49773e-09
6.61875e-06
1.0317e-08
6.61741e-06
1.0862e-08
6.61583e-06
1.17502e-08
6.6144e-06
1.22696e-08
6.61297e-06
1.28814e-08
6.61175e-06
1.31276e-08
6.61052e-06
1.34765e-08
6.60941e-06
1.35922e-08
6.6083e-06
1.37827e-08
6.60734e-06
1.37558e-08
6.60642e-06
1.37266e-08
6.60566e-06
1.3452e-08
6.60504e-06
1.31332e-08
6.60461e-06
1.26087e-08
6.60419e-06
1.2191e-08
1.13917e-08
6.60395e-06
7.16269e-06
-3.93793e-08
7.16664e-06
2.45059e-08
7.16239e-06
-1.6161e-08
7.1651e-06
8.50583e-09
7.16195e-06
-4.02414e-09
7.1642e-06
6.16078e-09
7.16193e-06
3.47544e-09
7.16282e-06
2.85692e-09
7.16133e-06
5.12425e-09
7.16091e-06
2.36015e-09
7.16014e-06
5.37126e-09
7.15977e-06
4.65968e-09
7.15894e-06
6.83044e-09
7.15845e-06
6.60269e-09
7.15756e-06
8.03692e-09
7.15691e-06
7.15741e-09
7.15582e-06
7.86425e-09
7.15498e-06
7.18818e-09
7.15382e-06
8.24079e-09
7.15294e-06
8.04745e-09
7.15182e-06
9.45817e-09
7.15084e-06
9.32263e-09
7.1496e-06
1.05841e-08
7.14834e-06
1.07625e-08
7.14677e-06
1.18873e-08
7.14535e-06
1.22841e-08
7.14399e-06
1.31062e-08
7.14288e-06
1.3381e-08
7.14181e-06
1.3954e-08
7.14077e-06
1.41608e-08
7.13966e-06
1.45845e-08
7.13857e-06
1.46881e-08
7.13739e-06
1.49601e-08
7.13623e-06
1.49142e-08
7.13505e-06
1.49058e-08
7.13393e-06
1.45784e-08
7.13284e-06
1.42252e-08
7.13196e-06
1.34888e-08
7.13182e-06
1.23298e-08
1.07296e-08
7.13248e-06
7.73474e-06
-3.55108e-08
7.73876e-06
2.04822e-08
7.7345e-06
-1.19011e-08
7.73702e-06
5.9801e-09
7.73417e-06
-1.17155e-09
7.73587e-06
4.46242e-09
7.73436e-06
4.98429e-09
7.73397e-06
3.25164e-09
7.73371e-06
5.37731e-09
7.73278e-06
3.29006e-09
7.73218e-06
5.97257e-09
7.73131e-06
5.53367e-09
7.73079e-06
7.354e-09
7.72992e-06
7.46514e-09
7.72933e-06
8.63105e-09
7.72839e-06
8.09966e-09
7.72752e-06
8.72834e-09
7.72639e-06
8.32173e-09
7.72537e-06
9.257e-09
7.7242e-06
9.22069e-09
7.72318e-06
1.04775e-08
7.72191e-06
1.05972e-08
7.72059e-06
1.19017e-08
7.71903e-06
1.23239e-08
7.71758e-06
1.33293e-08
7.7162e-06
1.36683e-08
7.71501e-06
1.42941e-08
7.71386e-06
1.45323e-08
7.71288e-06
1.49336e-08
7.71203e-06
1.50073e-08
7.71145e-06
1.51692e-08
7.71118e-06
1.49567e-08
7.71131e-06
1.48272e-08
7.71176e-06
1.44642e-08
7.71252e-06
1.41527e-08
7.71341e-06
1.36889e-08
7.71438e-06
1.32492e-08
7.71522e-06
1.26524e-08
7.71539e-06
1.21623e-08
1.12601e-08
7.71486e-06
8.3525e-06
-3.15506e-08
8.35653e-06
1.64499e-08
8.35234e-06
-7.70688e-09
8.35461e-06
3.70417e-09
8.35213e-06
1.31656e-09
8.3532e-06
3.39321e-09
8.35273e-06
5.44673e-09
8.35148e-06
4.50321e-09
8.35127e-06
5.58516e-09
8.35018e-06
4.38689e-09
8.34971e-06
6.4419e-09
8.34863e-06
6.60797e-09
8.3482e-06
7.78892e-09
8.34717e-06
8.4934e-09
8.34663e-06
9.16716e-09
8.34556e-06
9.17314e-09
8.34474e-06
9.54457e-09
8.3435e-06
9.56988e-09
8.34248e-06
1.02742e-08
8.34112e-06
1.05748e-08
8.33992e-06
1.16772e-08
8.33831e-06
1.22098e-08
8.33691e-06
1.33075e-08
8.33538e-06
1.38454e-08
8.3342e-06
1.45151e-08
8.33298e-06
1.48861e-08
8.33198e-06
1.52914e-08
8.33103e-06
1.54896e-08
8.33027e-06
1.56905e-08
8.32964e-06
1.56373e-08
8.32938e-06
1.54245e-08
8.32929e-06
1.50522e-08
8.32946e-06
1.46588e-08
8.32965e-06
1.42714e-08
8.32996e-06
1.38456e-08
8.33029e-06
1.33561e-08
8.3307e-06
1.28425e-08
8.33111e-06
1.22416e-08
8.33169e-06
1.15833e-08
1.07627e-08
8.33218e-06
9.01966e-06
-2.75602e-08
9.0236e-06
1.25047e-08
9.01964e-06
-3.74462e-09
9.02138e-06
1.961e-09
9.01958e-06
3.11716e-09
9.01939e-06
3.58793e-09
9.01962e-06
5.21908e-09
9.01889e-06
5.23076e-09
9.01827e-06
6.20215e-09
9.01719e-06
5.46705e-09
9.01654e-06
7.0952e-09
9.01552e-06
7.62279e-09
9.01489e-06
8.42188e-09
9.01393e-06
9.45493e-09
9.01319e-06
9.90804e-09
9.01218e-06
1.01759e-08
9.01119e-06
1.05412e-08
9.00998e-06
1.0773e-08
9.00877e-06
1.14862e-08
9.00735e-06
1.19956e-08
9.00588e-06
1.31458e-08
9.00431e-06
1.3778e-08
9.00293e-06
1.46953e-08
9.00162e-06
1.51556e-08
9.00045e-06
1.56778e-08
8.99938e-06
1.59623e-08
8.99846e-06
1.62048e-08
8.9977e-06
1.62547e-08
8.99732e-06
1.60727e-08
8.99713e-06
1.58203e-08
8.99708e-06
1.54775e-08
8.99706e-06
1.507e-08
8.99708e-06
1.4644e-08
8.99711e-06
1.42407e-08
8.99719e-06
1.37628e-08
8.99733e-06
1.32153e-08
8.9975e-06
1.26742e-08
8.99764e-06
1.20992e-08
8.99772e-06
1.15031e-08
1.09568e-08
8.99753e-06
9.74014e-06
-2.35996e-08
9.74388e-06
8.7627e-09
9.74041e-06
-2.69738e-10
9.74142e-06
9.54909e-10
9.74073e-06
3.80692e-09
9.73978e-06
4.52887e-09
9.73963e-06
5.37638e-09
9.73907e-06
5.78827e-09
9.73847e-06
6.80542e-09
9.73741e-06
6.52498e-09
9.73665e-06
7.85295e-09
9.73561e-06
8.66029e-09
9.73486e-06
9.17598e-09
9.7339e-06
1.04164e-08
9.73302e-06
1.0787e-08
9.73201e-06
1.1185e-08
9.73087e-06
1.16796e-08
9.72959e-06
1.20548e-08
9.72812e-06
1.29535e-08
9.72651e-06
1.36059e-08
9.72498e-06
1.46802e-08
9.72357e-06
1.51846e-08
9.72239e-06
1.5875e-08
9.72136e-06
1.61896e-08
9.72056e-06
1.64788e-08
9.71994e-06
1.65767e-08
9.71954e-06
1.66112e-08
9.71923e-06
1.65571e-08
9.71882e-06
1.64898e-08
9.7184e-06
1.62367e-08
9.71803e-06
1.58505e-08
9.71769e-06
1.54016e-08
9.71745e-06
1.48883e-08
9.71737e-06
1.43209e-08
9.71735e-06
1.37791e-08
9.71733e-06
1.32412e-08
9.71733e-06
1.26758e-08
9.71731e-06
1.21159e-08
9.71727e-06
1.15408e-08
1.09562e-08
9.71727e-06
1.05183e-05
-1.97764e-08
1.05216e-05
5.37477e-09
1.05197e-05
1.67459e-09
1.05191e-05
1.52906e-09
1.05187e-05
4.24141e-09
1.05177e-05
5.4954e-09
1.05172e-05
5.89491e-09
1.05166e-05
6.3986e-09
1.05161e-05
7.3164e-09
1.05151e-05
7.46407e-09
1.05143e-05
8.69821e-09
1.05132e-05
9.71551e-09
1.05124e-05
1.00571e-08
1.05114e-05
1.1385e-08
1.05104e-05
1.18008e-08
1.05093e-05
1.22689e-08
1.0508e-05
1.29928e-08
1.05065e-05
1.35039e-08
1.0505e-05
1.4524e-08
1.05034e-05
1.51469e-08
1.05021e-05
1.60114e-08
1.05008e-05
1.64392e-08
1.04997e-05
1.70011e-08
1.04986e-05
1.73133e-08
1.04975e-05
1.75562e-08
1.04965e-05
1.76092e-08
1.04956e-05
1.74947e-08
1.0495e-05
1.72025e-08
1.04948e-05
1.66685e-08
1.04948e-05
1.62003e-08
1.0495e-05
1.57046e-08
1.04951e-05
1.52667e-08
1.04952e-05
1.48014e-08
1.04951e-05
1.437e-08
1.04951e-05
1.38474e-08
1.0495e-05
1.32989e-08
1.0495e-05
1.27071e-08
1.0495e-05
1.21168e-08
1.0495e-05
1.15082e-08
1.09251e-08
1.0495e-05
1.13585e-05
-1.61422e-08
1.13615e-05
2.42521e-09
1.13603e-05
2.89875e-09
1.13591e-05
2.6637e-09
1.13586e-05
4.81305e-09
1.13579e-05
6.11707e-09
1.13573e-05
6.51431e-09
1.13566e-05
7.1607e-09
1.13558e-05
8.03251e-09
1.1355e-05
8.34771e-09
1.13541e-05
9.5667e-09
1.1353e-05
1.07902e-08
1.1352e-05
1.10589e-08
1.1351e-05
1.24192e-08
1.13498e-05
1.29725e-08
1.13486e-05
1.35025e-08
1.13471e-05
1.44733e-08
1.13456e-05
1.50164e-08
1.13441e-05
1.60199e-08
1.13427e-05
1.65171e-08
1.13415e-05
1.72405e-08
1.13403e-05
1.75978e-08
1.13393e-05
1.80162e-08
1.13384e-05
1.81866e-08
1.13378e-05
1.82085e-08
1.13373e-05
1.80834e-08
1.1337e-05
1.78163e-08
1.13367e-05
1.74725e-08
1.13364e-05
1.70059e-08
1.1336e-05
1.65891e-08
1.13357e-05
1.60414e-08
1.13354e-05
1.55329e-08
1.13352e-05
1.49859e-08
1.13351e-05
1.44626e-08
1.13351e-05
1.38872e-08
1.13351e-05
1.3312e-08
1.13351e-05
1.26955e-08
1.13351e-05
1.20858e-08
1.13351e-05
1.14592e-08
1.08211e-08
1.13353e-05
1.2266e-05
-1.27898e-08
1.22684e-05
3.05265e-12
1.22676e-05
3.67963e-09
1.22664e-05
3.89542e-09
1.22657e-05
5.54495e-09
1.22651e-05
6.72274e-09
1.22644e-05
7.1874e-09
1.22636e-05
7.89981e-09
1.22628e-05
8.88012e-09
1.22618e-05
9.32765e-09
1.22609e-05
1.04553e-08
1.22598e-05
1.18761e-08
1.22587e-05
1.2153e-08
1.22576e-05
1.35346e-08
1.22563e-05
1.43098e-08
1.22549e-05
1.48792e-08
1.22534e-05
1.60013e-08
1.22519e-05
1.65067e-08
1.22506e-05
1.73701e-08
1.22493e-05
1.77839e-08
1.22482e-05
1.83338e-08
1.22473e-05
1.85313e-08
1.22465e-05
1.87774e-08
1.22459e-05
1.88264e-08
1.22453e-05
1.87646e-08
1.22447e-05
1.86433e-08
1.22443e-05
1.82942e-08
1.22438e-05
1.78967e-08
1.22435e-05
1.73701e-08
1.22432e-05
1.68745e-08
1.22429e-05
1.62969e-08
1.22427e-05
1.57337e-08
1.22426e-05
1.51305e-08
1.22425e-05
1.45565e-08
1.22425e-05
1.39304e-08
1.22424e-05
1.33195e-08
1.22425e-05
1.26748e-08
1.22425e-05
1.20486e-08
1.22426e-05
1.1409e-08
1.07771e-08
1.22426e-05
1.32459e-05
-9.77312e-09
1.32477e-05
-1.82397e-09
1.32473e-05
4.08433e-09
1.32462e-05
5.04009e-09
1.32453e-05
6.4254e-09
1.32446e-05
7.40334e-09
1.32438e-05
7.9876e-09
1.32431e-05
8.66507e-09
1.32422e-05
9.74201e-09
1.32412e-05
1.03466e-08
1.32402e-05
1.13961e-08
1.32391e-05
1.30013e-08
1.32379e-05
1.33656e-08
1.32367e-05
1.47303e-08
1.32352e-05
1.58045e-08
1.32337e-05
1.6368e-08
1.32323e-05
1.74598e-08
1.32309e-05
1.78653e-08
1.32297e-05
1.85915e-08
1.32286e-05
1.89117e-08
1.32275e-05
1.9385e-08
1.32265e-05
1.9531e-08
1.32256e-05
1.96708e-08
1.32248e-05
1.96394e-08
1.32242e-05
1.94043e-08
1.32238e-05
1.90328e-08
1.32235e-05
1.85388e-08
1.32233e-05
1.80972e-08
1.32231e-05
1.75497e-08
1.3223e-05
1.7061e-08
1.32228e-05
1.64673e-08
1.32226e-05
1.58951e-08
1.32225e-05
1.52458e-08
1.32224e-05
1.46254e-08
1.32224e-05
1.39549e-08
1.32224e-05
1.33097e-08
1.32225e-05
1.26377e-08
1.32225e-05
1.19922e-08
1.32226e-05
1.13383e-08
1.06936e-08
1.32227e-05
1.43042e-05
-7.1892e-09
1.43052e-05
-2.83804e-09
1.43052e-05
4.08371e-09
1.43042e-05
5.98931e-09
1.43033e-05
7.35763e-09
1.43025e-05
8.21557e-09
1.43016e-05
8.89052e-09
1.43007e-05
9.56347e-09
1.42998e-05
1.06236e-08
1.42987e-05
1.14013e-08
1.42977e-05
1.23827e-08
1.42966e-05
1.41646e-08
1.42952e-05
1.47085e-08
1.42939e-05
1.60365e-08
1.42924e-05
1.73531e-08
1.42909e-05
1.78463e-08
1.42896e-05
1.87704e-08
1.42883e-05
1.91156e-08
1.42872e-05
1.97433e-08
1.42861e-05
1.99639e-08
1.42853e-05
2.02638e-08
1.42845e-05
2.02975e-08
1.42839e-05
2.02506e-08
1.42834e-05
2.01388e-08
1.4283e-05
1.98353e-08
1.42825e-05
1.95467e-08
1.4282e-05
1.89962e-08
1.42816e-05
1.84907e-08
1.42813e-05
1.78475e-08
1.42811e-05
1.72602e-08
1.4281e-05
1.6599e-08
1.42809e-05
1.59869e-08
1.42808e-05
1.53012e-08
1.42808e-05
1.46446e-08
1.42808e-05
1.3943e-08
1.42809e-05
1.32689e-08
1.42809e-05
1.2576e-08
1.4281e-05
1.19119e-08
1.42811e-05
1.1247e-08
1.05914e-08
1.42812e-05
1.54469e-05
-5.07202e-09
1.54464e-05
-2.38401e-09
1.54472e-05
3.27292e-09
1.54467e-05
6.49229e-09
1.54458e-05
8.31432e-09
1.54448e-05
9.17139e-09
1.54438e-05
9.90397e-09
1.54427e-05
1.0634e-08
1.54417e-05
1.16467e-08
1.54406e-05
1.25219e-08
1.54395e-05
1.35224e-08
1.54381e-05
1.55294e-08
1.54366e-05
1.61641e-08
1.54354e-05
1.73201e-08
1.5434e-05
1.86735e-08
1.54328e-05
1.91195e-08
1.54316e-05
1.99611e-08
1.54304e-05
2.02435e-08
1.54294e-05
2.07984e-08
1.54284e-05
2.09402e-08
1.54276e-05
2.10963e-08
1.54268e-05
2.11009e-08
1.54261e-05
2.09188e-08
1.54255e-05
2.07256e-08
1.54251e-05
2.02703e-08
1.54248e-05
1.98422e-08
1.54246e-05
1.92201e-08
1.54244e-05
1.86904e-08
1.54242e-05
1.80076e-08
1.54241e-05
1.73962e-08
1.5424e-05
1.66935e-08
1.54239e-05
1.6032e-08
1.54239e-05
1.5311e-08
1.54239e-05
1.46179e-08
1.5424e-05
1.38936e-08
1.54241e-05
1.31943e-08
1.54242e-05
1.2487e-08
1.54243e-05
1.18062e-08
1.54244e-05
1.11336e-08
1.04724e-08
1.54245e-05
1.66808e-05
-3.418e-09
1.66798e-05
-1.42823e-09
1.66805e-05
2.61511e-09
1.66803e-05
6.71296e-09
1.66794e-05
9.15891e-09
1.66784e-05
1.01858e-08
1.66773e-05
1.10276e-08
1.66761e-05
1.18367e-08
1.66748e-05
1.29169e-08
1.66734e-05
1.39316e-08
1.66722e-05
1.47713e-08
1.66709e-05
1.67867e-08
1.66696e-05
1.75268e-08
1.66684e-05
1.84707e-08
1.66672e-05
1.98547e-08
1.6666e-05
2.02935e-08
1.66649e-05
2.10697e-08
1.66639e-05
2.12997e-08
1.66629e-05
2.17516e-08
1.6662e-05
2.18747e-08
1.66612e-05
2.18662e-08
1.66605e-05
2.17908e-08
1.666e-05
2.14574e-08
1.66595e-05
2.11847e-08
1.66592e-05
2.06324e-08
1.66589e-05
2.01303e-08
1.66587e-05
1.94239e-08
1.66586e-05
1.88133e-08
1.66585e-05
1.81048e-08
1.66584e-05
1.74519e-08
1.66584e-05
1.6724e-08
1.66584e-05
1.60204e-08
1.66584e-05
1.52746e-08
1.66585e-05
1.45474e-08
1.66586e-05
1.38065e-08
1.66587e-05
1.30848e-08
1.66588e-05
1.23689e-08
1.66589e-05
1.16751e-08
1.66591e-05
1.09996e-08
1.03314e-08
1.66592e-05
1.8013e-05
-2.06021e-09
1.80121e-05
-5.15205e-10
1.8012e-05
2.76862e-09
1.80121e-05
6.62404e-09
1.80115e-05
9.7134e-09
1.80106e-05
1.11405e-08
1.80093e-05
1.22401e-08
1.8008e-05
1.31566e-08
1.80067e-05
1.42583e-08
1.80052e-05
1.54105e-08
1.80039e-05
1.60872e-08
1.80027e-05
1.79738e-08
1.80014e-05
1.88737e-08
1.80002e-05
1.96174e-08
1.79991e-05
2.09581e-08
1.7998e-05
2.14099e-08
1.7997e-05
2.20926e-08
1.7996e-05
2.22987e-08
1.79951e-05
2.26021e-08
1.79943e-05
2.272e-08
1.79936e-05
2.25682e-08
1.79929e-05
2.24162e-08
1.79924e-05
2.19569e-08
1.79921e-05
2.15322e-08
1.79919e-05
2.08643e-08
1.79917e-05
2.02647e-08
1.79916e-05
1.95304e-08
1.79916e-05
1.88696e-08
1.79915e-05
1.81432e-08
1.79915e-05
1.74468e-08
1.79916e-05
1.66987e-08
1.79916e-05
1.59559e-08
1.79917e-05
1.51918e-08
1.79918e-05
1.44354e-08
1.79919e-05
1.36824e-08
1.79921e-05
1.29428e-08
1.79922e-05
1.22214e-08
1.79924e-05
1.15184e-08
1.79925e-05
1.08421e-08
1.01707e-08
1.79927e-05
1.94516e-05
-1.01112e-09
1.94507e-05
4.41098e-10
1.945e-05
3.40959e-09
1.94501e-05
6.59582e-09
1.94498e-05
9.98408e-09
1.9449e-05
1.19629e-08
1.94478e-05
1.34312e-08
1.94464e-05
1.45215e-08
1.94451e-05
1.56154e-08
1.94435e-05
1.69255e-08
1.94421e-05
1.75e-08
1.9441e-05
1.91093e-08
1.94397e-05
2.01769e-08
1.94385e-05
2.07714e-08
1.94375e-05
2.19695e-08
1.94365e-05
2.24581e-08
1.94356e-05
2.30203e-08
1.94346e-05
2.32142e-08
1.94339e-05
2.33509e-08
1.94332e-05
2.34185e-08
1.94326e-05
2.31496e-08
1.94322e-05
2.28707e-08
1.94318e-05
2.22915e-08
1.94316e-05
2.17568e-08
1.94314e-05
2.10393e-08
1.94313e-05
2.03615e-08
1.94313e-05
1.96019e-08
1.94312e-05
1.88838e-08
1.94312e-05
1.81341e-08
1.94313e-05
1.73868e-08
1.94314e-05
1.66172e-08
1.94315e-05
1.58406e-08
1.94316e-05
1.50615e-08
1.94318e-05
1.42824e-08
1.94319e-05
1.352e-08
1.94321e-05
1.27679e-08
1.94323e-05
1.20431e-08
1.94325e-05
1.13354e-08
1.94327e-05
1.06601e-08
9.98929e-09
1.94328e-05
2.1005e-05
-2.20354e-10
2.1004e-05
1.48447e-09
2.10033e-05
4.07765e-09
2.10029e-05
6.98687e-09
2.10027e-05
1.02212e-08
2.10021e-05
1.25443e-08
2.10011e-05
1.44274e-08
2.09997e-05
1.58692e-08
2.09984e-05
1.69505e-08
2.09969e-05
1.83984e-08
2.09954e-05
1.89976e-08
2.09943e-05
2.02878e-08
2.09931e-05
2.13808e-08
2.09919e-05
2.19427e-08
2.0991e-05
2.29008e-08
2.099e-05
2.34009e-08
2.09892e-05
2.38474e-08
2.09884e-05
2.39966e-08
2.09878e-05
2.39951e-08
2.09872e-05
2.39472e-08
2.09868e-05
2.35962e-08
2.09865e-05
2.31723e-08
2.09863e-05
2.25226e-08
2.09861e-05
2.18632e-08
2.09861e-05
2.11108e-08
2.09861e-05
2.03772e-08
2.09861e-05
1.96103e-08
2.09861e-05
1.88509e-08
2.09862e-05
1.8065e-08
2.09863e-05
1.72733e-08
2.09864e-05
1.64815e-08
2.09866e-05
1.56786e-08
2.09867e-05
1.48847e-08
2.09869e-05
1.40907e-08
2.09871e-05
1.33201e-08
2.09873e-05
1.25618e-08
2.09875e-05
1.18348e-08
2.09878e-05
1.11273e-08
2.0988e-05
1.04542e-08
9.78758e-09
2.09882e-05
2.26823e-05
3.75055e-10
2.26813e-05
2.48523e-09
2.26805e-05
4.87771e-09
2.26799e-05
7.5913e-09
2.26795e-05
1.0623e-08
2.26791e-05
1.30133e-08
2.26783e-05
1.51788e-08
2.26771e-05
1.70673e-08
2.26758e-05
1.82349e-08
2.26745e-05
1.97571e-08
2.2673e-05
2.05001e-08
2.26717e-05
2.15568e-08
2.26706e-05
2.24786e-08
2.26695e-05
2.30499e-08
2.26686e-05
2.37936e-08
2.26678e-05
2.41851e-08
2.26671e-05
2.45531e-08
2.26665e-05
2.46102e-08
2.2666e-05
2.45161e-08
2.26656e-05
2.43086e-08
2.26653e-05
2.38804e-08
2.26652e-05
2.33329e-08
2.26651e-05
2.26196e-08
2.26651e-05
2.18752e-08
2.26651e-05
2.10977e-08
2.26651e-05
2.03327e-08
2.26652e-05
1.95537e-08
2.26653e-05
1.87522e-08
2.26654e-05
1.793e-08
2.26656e-05
1.71087e-08
2.26658e-05
1.629e-08
2.2666e-05
1.5469e-08
2.26662e-05
1.46594e-08
2.26664e-05
1.38586e-08
2.26667e-05
1.30811e-08
2.26669e-05
1.2323e-08
2.26671e-05
1.15953e-08
2.26674e-05
1.08927e-08
2.26676e-05
1.02226e-08
9.56463e-09
2.26678e-05
2.44935e-05
8.54936e-10
2.44926e-05
3.34801e-09
2.44917e-05
5.8069e-09
2.44909e-05
8.32825e-09
2.44903e-05
1.12883e-08
2.44897e-05
1.35613e-08
2.44892e-05
1.57467e-08
2.44882e-05
1.79772e-08
2.44871e-05
1.93964e-08
2.44859e-05
2.0953e-08
2.44846e-05
2.1837e-08
2.44832e-05
2.28866e-08
2.44822e-05
2.35358e-08
2.44812e-05
2.39866e-08
2.44804e-05
2.46355e-08
2.44798e-05
2.48206e-08
2.44792e-05
2.50941e-08
2.44788e-05
2.50218e-08
2.44785e-05
2.48583e-08
2.44783e-05
2.45007e-08
2.44782e-05
2.39786e-08
2.44782e-05
2.3344e-08
2.44782e-05
2.25952e-08
2.44782e-05
2.18387e-08
2.44783e-05
2.1029e-08
2.44784e-05
2.02304e-08
2.44785e-05
1.94035e-08
2.44787e-05
1.8578e-08
2.44789e-05
1.77297e-08
2.44791e-05
1.68881e-08
2.44794e-05
1.60422e-08
2.44796e-05
1.5211e-08
2.44799e-05
1.43849e-08
2.44802e-05
1.35859e-08
2.44805e-05
1.28032e-08
2.44807e-05
1.20495e-08
2.4481e-05
1.13235e-08
2.44813e-05
1.06375e-08
2.44815e-05
9.97489e-09
9.31491e-09
2.44818e-05
2.64492e-05
1.23293e-09
2.64484e-05
4.10262e-09
2.64475e-05
6.75613e-09
2.64466e-05
9.2124e-09
2.64458e-05
1.21061e-08
2.64449e-05
1.44281e-08
2.64442e-05
1.64429e-08
2.64435e-05
1.87394e-08
2.64426e-05
2.02963e-08
2.64416e-05
2.18748e-08
2.64406e-05
2.28461e-08
2.64395e-05
2.39975e-08
2.64385e-05
2.45524e-08
2.64378e-05
2.47081e-08
2.64371e-05
2.53292e-08
2.64366e-05
2.53147e-08
2.64363e-05
2.54276e-08
2.64361e-05
2.52179e-08
2.6436e-05
2.49547e-08
2.64359e-05
2.45246e-08
2.6436e-05
2.39426e-08
2.6436e-05
2.32895e-08
2.64361e-05
2.24989e-08
2.64362e-05
2.17131e-08
2.64364e-05
2.08558e-08
2.64366e-05
2.00361e-08
2.64369e-05
1.91675e-08
2.64371e-05
1.8324e-08
2.64374e-05
1.74472e-08
2.64377e-05
1.65943e-08
2.6438e-05
1.57306e-08
2.64383e-05
1.48948e-08
2.64386e-05
1.40656e-08
2.64389e-05
1.32676e-08
2.64393e-05
1.24884e-08
2.64396e-05
1.17432e-08
2.64399e-05
1.10244e-08
2.64402e-05
1.03403e-08
2.64405e-05
9.686e-09
9.05261e-09
2.64407e-05
2.8561e-05
1.53883e-09
2.85603e-05
4.77697e-09
2.85595e-05
7.64098e-09
2.85585e-05
1.01675e-08
2.85576e-05
1.29879e-08
2.85566e-05
1.54151e-08
2.85557e-05
1.7356e-08
2.85549e-05
1.95948e-08
2.8554e-05
2.11188e-08
2.85533e-05
2.26538e-08
2.85526e-05
2.35175e-08
2.8552e-05
2.46091e-08
2.85512e-05
2.53635e-08
2.85506e-05
2.52463e-08
2.85502e-05
2.5758e-08
2.85498e-05
2.56986e-08
2.85496e-05
2.5624e-08
2.85495e-05
2.53083e-08
2.85496e-05
2.48872e-08
2.85497e-05
2.44179e-08
2.85499e-05
2.37356e-08
2.85501e-05
2.30562e-08
2.85504e-05
2.22198e-08
2.85507e-05
2.14375e-08
2.8551e-05
2.05581e-08
2.85513e-05
1.9727e-08
2.85516e-05
1.88329e-08
2.8552e-05
1.79736e-08
2.85524e-05
1.70816e-08
2.85527e-05
1.62206e-08
2.85531e-05
1.53533e-08
2.85535e-05
1.45176e-08
2.85539e-05
1.36938e-08
2.85542e-05
1.29029e-08
2.85546e-05
1.21353e-08
2.85549e-05
1.14015e-08
2.85552e-05
1.0697e-08
2.85556e-05
1.0026e-08
2.85559e-05
9.38689e-09
8.79474e-09
2.85561e-05
3.08414e-05
1.78768e-09
3.08409e-05
5.34682e-09
3.084e-05
8.48313e-09
3.08391e-05
1.11334e-08
3.08382e-05
1.38745e-08
3.08372e-05
1.63671e-08
3.08363e-05
1.82671e-08
3.08355e-05
2.04081e-08
3.08347e-05
2.18805e-08
3.0834e-05
2.33444e-08
3.08334e-05
2.41456e-08
3.08331e-05
2.49042e-08
3.08327e-05
2.58233e-08
3.08323e-05
2.56076e-08
3.08322e-05
2.58466e-08
3.08321e-05
2.58038e-08
3.08321e-05
2.55795e-08
3.08322e-05
2.5215e-08
3.08325e-05
2.46342e-08
3.08328e-05
2.4134e-08
3.08331e-05
2.34002e-08
3.08335e-05
2.27073e-08
3.08338e-05
2.18407e-08
3.08342e-05
2.10383e-08
3.08346e-05
2.01481e-08
3.08351e-05
1.92996e-08
3.08355e-05
1.83978e-08
3.0836e-05
1.75201e-08
3.08364e-05
1.66259e-08
3.08369e-05
1.57566e-08
3.08373e-05
1.48973e-08
3.08378e-05
1.40644e-08
3.08382e-05
1.32555e-08
3.08387e-05
1.24745e-08
3.08391e-05
1.17261e-08
3.08394e-05
1.10194e-08
3.08398e-05
1.03368e-08
3.08402e-05
9.68157e-09
3.08405e-05
9.06156e-09
8.48272e-09
3.08408e-05
3.33039e-05
1.94879e-09
3.33034e-05
5.89677e-09
3.33027e-05
9.21036e-09
3.33017e-05
1.20759e-08
3.33009e-05
1.47128e-08
3.33e-05
1.72428e-08
3.32992e-05
1.90719e-08
3.32985e-05
2.11071e-08
3.32979e-05
2.2534e-08
3.32973e-05
2.38729e-08
3.32967e-05
2.47252e-08
3.32965e-05
2.51669e-08
3.32963e-05
2.60101e-08
3.3296e-05
2.58983e-08
3.3296e-05
2.5808e-08
3.32961e-05
2.56974e-08
3.32964e-05
2.53248e-08
3.32967e-05
2.49038e-08
3.32972e-05
2.41869e-08
3.32977e-05
2.35846e-08
3.32983e-05
2.28068e-08
3.32989e-05
2.2093e-08
3.32995e-05
2.12281e-08
3.33001e-05
2.04407e-08
3.33007e-05
1.96049e-08
3.33012e-05
1.87507e-08
3.33018e-05
1.78603e-08
3.33023e-05
1.69718e-08
3.33028e-05
1.60864e-08
3.33034e-05
1.5208e-08
3.33039e-05
1.43446e-08
3.33045e-05
1.3523e-08
3.3305e-05
1.27393e-08
3.33055e-05
1.19796e-08
3.3306e-05
1.12582e-08
3.33064e-05
1.05622e-08
3.33069e-05
9.90456e-09
3.33073e-05
9.27362e-09
3.33076e-05
8.67981e-09
8.10347e-09
3.3308e-05
3.5963e-05
2.09312e-09
3.59625e-05
6.40233e-09
3.59618e-05
9.9049e-09
3.59609e-05
1.2934e-08
3.59602e-05
1.54483e-08
3.59595e-05
1.79577e-08
3.59588e-05
1.97672e-08
3.59582e-05
2.16626e-08
3.59577e-05
2.30424e-08
3.59574e-05
2.41841e-08
3.59571e-05
2.50401e-08
3.5957e-05
2.52717e-08
3.59572e-05
2.58072e-08
3.59573e-05
2.57978e-08
3.59576e-05
2.54723e-08
3.59581e-05
2.52151e-08
3.59587e-05
2.47168e-08
3.59594e-05
2.42444e-08
3.59601e-05
2.35083e-08
3.59608e-05
2.28553e-08
3.59615e-05
2.21344e-08
3.5962e-05
2.15004e-08
3.59626e-05
2.07044e-08
3.59631e-05
1.98682e-08
3.59638e-05
1.8975e-08
3.59645e-05
1.80273e-08
3.59652e-05
1.71277e-08
3.5966e-05
1.62447e-08
3.59666e-05
1.54244e-08
3.59672e-05
1.45986e-08
3.59678e-05
1.3798e-08
3.59683e-05
1.30112e-08
3.59688e-05
1.22621e-08
3.59692e-05
1.15326e-08
3.59696e-05
1.08408e-08
3.597e-05
1.01718e-08
3.59704e-05
9.53959e-09
3.59707e-05
8.93219e-09
3.5971e-05
8.35973e-09
7.82137e-09
3.59713e-05
3.88347e-05
1.82943e-09
3.88333e-05
7.81323e-09
3.88333e-05
9.92793e-09
3.88322e-05
1.40102e-08
3.88322e-05
1.54924e-08
3.88313e-05
1.87811e-08
3.88311e-05
1.99817e-08
3.88304e-05
2.23739e-08
3.88302e-05
2.32281e-08
3.88297e-05
2.47048e-08
3.88297e-05
2.50981e-08
3.88293e-05
2.56628e-08
3.88295e-05
2.56075e-08
3.88294e-05
2.59051e-08
3.88295e-05
2.5292e-08
3.88296e-05
2.51008e-08
3.883e-05
2.43265e-08
3.88304e-05
2.38621e-08
3.8831e-05
2.29108e-08
3.88317e-05