/*--------------------------------*- C++ -*----------------------------------*\
| =========                 |                                                 |
| \\      /  F ield         | OpenFOAM: The Open Source CFD Toolbox           |
|  \\    /   O peration     | Version:  2312                                  |
|   \\  /    A nd           | Website:  www.openfoam.com                      |
|    \\/     M anipulation  |                                                 |
\*---------------------------------------------------------------------------*/
FoamFile
{
    version     2.0;
    format      ascii;
    arch        "LSB;label=32;scalar=64";
    class       volVectorField;
    location    "0.6";
    object      U;
}
// * * * * * * * * * * * * * * * * * * * * * * * * * * * * * * * * * * * * * //

dimensions      [0 1 -1 0 0 0 0];

internalField   nonuniform List<vector> 
5600
(
(0.971798 -0.000834849 0)
(1.02741 0.000756605 0)
(0.974221 -0.000707973 0)
(1.02504 0.000545138 0)
(0.976981 -0.000540222 0)
(1.02251 0.000516496 0)
(0.97925 -0.000371137 0)
(1.02016 0.000396938 0)
(0.981334 -0.000352505 0)
(1.01802 0.000265001 0)
(0.983233 -0.00026296 0)
(1.01583 0.000256384 0)
(0.984903 -0.000135765 0)
(1.01381 0.000242672 0)
(0.986369 -7.18285e-05 0)
(1.01195 0.000218408 0)
(0.987688 -4.18327e-05 0)
(1.01026 0.000194251 0)
(0.988816 -1.10446e-05 0)
(1.00865 0.000202011 0)
(0.989755 2.74338e-05 0)
(1.00714 0.000221938 0)
(0.990503 7.53127e-05 0)
(1.0057 0.000252708 0)
(0.991081 0.000136053 0)
(1.00435 0.000293421 0)
(0.991519 0.000200094 0)
(1.00309 0.000337134 0)
(0.991817 0.000261892 0)
(1.00188 0.000382067 0)
(0.991973 0.000328624 0)
(1.00072 0.000454118 0)
(0.991985 0.000459061 0)
(0.999576 0.00064748 0)
(0.991889 0.000748746 0)
(0.998508 0.00100424 0)
(0.991752 0.00117861 0)
(0.997524 0.00152252 0)
(0.99164 0.00186949 0)
(0.996987 0.00243484 0)
(0.98739 -0.000854209 0)
(1.01106 0.000753711 0)
(0.989717 -0.000706743 0)
(1.00918 0.000519474 0)
(0.992064 -0.000518029 0)
(1.00727 0.000499748 0)
(0.993666 -0.000339995 0)
(1.0058 0.000373423 0)
(0.994982 -0.000314367 0)
(1.00451 0.000241135 0)
(0.995973 -0.00020375 0)
(1.00318 0.000241307 0)
(0.996665 -7.02375e-05 0)
(1.00216 0.000231087 0)
(0.997142 -5.75686e-06 0)
(1.00132 0.000214403 0)
(0.997495 2.39765e-05 0)
(1.00063 0.000205523 0)
(0.997668 6.3386e-05 0)
(0.99995 0.000234065 0)
(0.99768 0.000117673 0)
(0.999312 0.000276208 0)
(0.997561 0.000181031 0)
(0.998685 0.000331113 0)
(0.997344 0.000261358 0)
(0.998093 0.000399424 0)
(0.99706 0.000350247 0)
(0.997518 0.00047719 0)
(0.996706 0.000449026 0)
(0.996941 0.000575169 0)
(0.996292 0.000582398 0)
(0.996371 0.000738011 0)
(0.99586 0.000824213 0)
(0.995841 0.00106805 0)
(0.995435 0.00126662 0)
(0.995346 0.00159624 0)
(0.995063 0.00188305 0)
(0.995032 0.0023214 0)
(0.995041 0.00279204 0)
(0.995396 0.00345185 0)
(0.996932 -0.00076764 0)
(1.00205 0.000643768 0)
(0.99761 -0.000607292 0)
(1.0014 0.000407802 0)
(0.998359 -0.000413556 0)
(1.00074 0.000398152 0)
(0.998635 -0.000246905 0)
(1.00043 0.000272041 0)
(0.998907 -0.000214938 0)
(1.00006 0.000150172 0)
(0.998961 -9.95387e-05 0)
(0.999524 0.000162627 0)
(0.998876 1.72301e-05 0)
(0.999214 0.000162287 0)
(0.998737 7.45149e-05 0)
(0.998959 0.000153387 0)
(0.998614 9.1377e-05 0)
(0.998736 0.000157781 0)
(0.998404 0.00012459 0)
(0.998416 0.000199405 0)
(0.998114 0.000186649 0)
(0.998047 0.000256589 0)
(0.997763 0.00025801 0)
(0.997628 0.000324186 0)
(0.99737 0.000338734 0)
(0.997198 0.000403883 0)
(0.996955 0.000430185 0)
(0.996753 0.000499167 0)
(0.996513 0.000542421 0)
(0.99629 0.000632328 0)
(0.996051 0.000721412 0)
(0.995826 0.000868468 0)
(0.995606 0.00101858 0)
(0.995394 0.0012072 0)
(0.995185 0.00139368 0)
(0.994991 0.00162398 0)
(0.994842 0.00187112 0)
(0.994772 0.00216947 0)
(0.994848 0.0024852 0)
(0.995173 0.0028294 0)
(0.999537 -0.000760694 0)
(0.999895 0.000634198 0)
(0.999451 -0.000585187 0)
(0.999748 0.000392472 0)
(0.999496 -0.000387352 0)
(0.999565 0.000391534 0)
(0.999382 -0.000225205 0)
(0.999516 0.000255423 0)
(0.999343 -0.000181205 0)
(0.999328 0.000145184 0)
(0.99917 -5.45593e-05 0)
(0.999017 0.00017019 0)
(0.998952 5.28573e-05 0)
(0.998805 0.000170812 0)
(0.998699 0.000108118 0)
(0.998595 0.000166155 0)
(0.998488 0.000125091 0)
(0.998411 0.000185438 0)
(0.99824 0.000174103 0)
(0.998136 0.000247564 0)
(0.99794 0.000252256 0)
(0.997797 0.00032256 0)
(0.997585 0.000340835 0)
(0.997399 0.000408058 0)
(0.997189 0.000439466 0)
(0.996983 0.000509596 0)
(0.996771 0.000556025 0)
(0.996549 0.000638563 0)
(0.996334 0.000709749 0)
(0.996114 0.000821793 0)
(0.995915 0.00093883 0)
(0.995709 0.00110624 0)
(0.995521 0.00127867 0)
(0.995325 0.00148173 0)
(0.995157 0.0016858 0)
(0.995011 0.00192976 0)
(0.994935 0.00219259 0)
(0.994941 0.00249889 0)
(0.995105 0.00282078 0)
(0.995499 0.00316548 0)
(0.999956 -0.00069381 0)
(0.999596 0.00055767 0)
(0.999726 -0.000502633 0)
(0.999551 0.000319902 0)
(0.999591 -0.000308786 0)
(0.999479 0.00031768 0)
(0.999502 -0.000149523 0)
(0.999415 0.000183105 0)
(0.999346 -0.000100507 0)
(0.999225 8.73171e-05 0)
(0.999143 1.83296e-05 0)
(0.999007 0.000131286 0)
(0.998973 0.000110035 0)
(0.998796 0.000156817 0)
(0.998692 0.000141558 0)
(0.998537 0.00016629 0)
(0.998418 0.000150941 0)
(0.998327 0.000192488 0)
(0.998169 0.000207618 0)
(0.998073 0.00026528 0)
(0.997898 0.000300267 0)
(0.997759 0.000356382 0)
(0.99757 0.000401615 0)
(0.997382 0.000459905 0)
(0.997189 0.000513024 0)
(0.996982 0.00058197 0)
(0.996781 0.000649796 0)
(0.996565 0.000741812 0)
(0.996363 0.000842597 0)
(0.996153 0.000978185 0)
(0.995969 0.00112354 0)
(0.995781 0.0012906 0)
(0.995612 0.00145804 0)
(0.995438 0.00164406 0)
(0.995297 0.00183553 0)
(0.99518 0.00204771 0)
(0.995137 0.00226655 0)
(0.995169 0.00249903 0)
(0.995348 0.00272888 0)
(0.995737 0.00295665 0)
(1.00001 -0.000678086 0)
(0.999564 0.000536932 0)
(0.999765 -0.000469007 0)
(0.999546 0.000301348 0)
(0.999584 -0.000275574 0)
(0.999486 0.000292405 0)
(0.999549 -0.000111547 0)
(0.999424 0.000167547 0)
(0.999332 -5.45892e-05 0)
(0.999205 7.92208e-05 0)
(0.999118 5.31547e-05 0)
(0.999024 0.000129048 0)
(0.999007 0.000140015 0)
(0.998827 0.000174794 0)
(0.998724 0.000178353 0)
(0.998549 0.000195654 0)
(0.998407 0.000190107 0)
(0.998301 0.000222162 0)
(0.998144 0.000248859 0)
(0.998051 0.000304554 0)
(0.997891 0.000359232 0)
(0.997759 0.000413322 0)
(0.99759 0.000478648 0)
(0.99741 0.000539003 0)
(0.997233 0.000610658 0)
(0.997037 0.000688974 0)
(0.996849 0.000778202 0)
(0.996647 0.000886001 0)
(0.996464 0.0010112 0)
(0.996277 0.00116302 0)
(0.996107 0.00132587 0)
(0.995928 0.0014954 0)
(0.995769 0.00166373 0)
(0.995611 0.00183933 0)
(0.995491 0.00202135 0)
(0.995397 0.00221122 0)
(0.995377 0.00240459 0)
(0.995432 0.00259806 0)
(0.995634 0.00278869 0)
(0.996044 0.00297317 0)
(1.00002 -0.000614669 0)
(0.999563 0.000465196 0)
(0.999772 -0.000390405 0)
(0.999558 0.000238833 0)
(0.999587 -0.000202637 0)
(0.999491 0.000221578 0)
(0.999556 -4.44773e-05 0)
(0.999437 0.000116073 0)
(0.999342 1.73963e-05 0)
(0.99921 4.82505e-05 0)
(0.999112 9.40376e-05 0)
(0.999021 0.000120588 0)
(0.999012 0.000156081 0)
(0.998844 0.000189996 0)
(0.998748 0.000215479 0)
(0.998585 0.000225264 0)
(0.998437 0.000227048 0)
(0.998315 0.000249319 0)
(0.998151 0.000284148 0)
(0.998043 0.000335484 0)
(0.997891 0.000406662 0)
(0.997759 0.000459018 0)
(0.997601 0.00054052 0)
(0.997433 0.000606846 0)
(0.997269 0.000694272 0)
(0.99709 0.000788588 0)
(0.996921 0.000900221 0)
(0.996743 0.00103194 0)
(0.996583 0.00118161 0)
(0.996414 0.00134151 0)
(0.996258 0.00150228 0)
(0.996092 0.00166453 0)
(0.995948 0.00182912 0)
(0.995805 0.00199661 0)
(0.995703 0.00216824 0)
(0.995624 0.00233913 0)
(0.995615 0.00250826 0)
(0.995675 0.00266698 0)
(0.995878 0.0028147 0)
(0.996288 0.00294319 0)
(1.00002 -0.000586829 0)
(0.999571 0.00043037 0)
(0.999773 -0.000344158 0)
(0.999573 0.000209784 0)
(0.999596 -0.000158131 0)
(0.999507 0.000187226 0)
(0.999546 -2.20332e-06 0)
(0.999441 9.95452e-05 0)
(0.999363 6.28792e-05 0)
(0.999235 4.94103e-05 0)
(0.999122 0.000116913 0)
(0.999019 0.000127 0)
(0.999001 0.00017892 0)
(0.998845 0.00020956 0)
(0.998761 0.000251502 0)
(0.99862 0.000257098 0)
(0.998484 0.000272697 0)
(0.998351 0.000288156 0)
(0.998184 0.000333898 0)
(0.998054 0.000379792 0)
(0.997904 0.000466973 0)
(0.997769 0.000516486 0)
(0.997615 0.000614534 0)
(0.997458 0.000683063 0)
(0.997302 0.0007887 0)
(0.997145 0.000895995 0)
(0.996996 0.00103927 0)
(0.996844 0.00118901 0)
(0.996703 0.00135481 0)
(0.996548 0.00151223 0)
(0.996407 0.00167769 0)
(0.996256 0.00183594 0)
(0.99613 0.0020037 0)
(0.996004 0.00216023 0)
(0.995916 0.00231819 0)
(0.995848 0.00245492 0)
(0.995843 0.00258326 0)
(0.9959 0.0026834 0)
(0.996088 0.00277296 0)
(0.996473 0.00284295 0)
(1.00003 -0.000525156 0)
(0.999585 0.000361979 0)
(0.999771 -0.000268874 0)
(0.999586 0.000154191 0)
(0.999607 -9.27746e-05 0)
(0.999527 0.000130795 0)
(0.999541 5.26319e-05 0)
(0.999438 6.63769e-05 0)
(0.999377 0.000113327 0)
(0.999262 5.15271e-05 0)
(0.999141 0.000139244 0)
(0.999028 0.000129688 0)
(0.998996 0.000211035 0)
(0.998845 0.000219693 0)
(0.998769 0.000291098 0)
(0.998646 0.000276002 0)
(0.998522 0.000325883 0)
(0.998389 0.000318225 0)
(0.998224 0.000396481 0)
(0.998081 0.000417502 0)
(0.997934 0.00053631 0)
(0.997799 0.000568088 0)
(0.997645 0.000699275 0)
(0.997501 0.000759176 0)
(0.997355 0.000903086 0)
(0.997221 0.00101194 0)
(0.997092 0.00118588 0)
(0.996956 0.00132183 0)
(0.996825 0.00149777 0)
(0.996685 0.00163853 0)
(0.99656 0.00182268 0)
(0.996426 0.00198365 0)
(0.996311 0.00218813 0)
(0.996189 0.002366 0)
(0.996093 0.00256735 0)
(0.996007 0.00272174 0)
(0.995975 0.00287742 0)
(0.996004 0.00296614 0)
(0.99618 0.00300656 0)
(0.996607 0.00288357 0)
(1.00004 -0.000487573 0)
(0.999597 0.000317169 0)
(0.999776 -0.000213671 0)
(0.999597 0.00011928 0)
(0.99962 -4.51625e-05 0)
(0.999543 0.000100061 0)
(0.999545 9.27234e-05 0)
(0.999439 5.77606e-05 0)
(0.999394 0.000129879 0)
(0.999278 7.15721e-05 0)
(0.999162 0.000161663 0)
(0.99904 0.000149822 0)
(0.999007 0.000233736 0)
(0.99885 0.000242558 0)
(0.998784 0.000318767 0)
(0.998663 0.000308306 0)
(0.998554 0.00037015 0)
(0.99842 0.000366932 0)
(0.998264 0.000454465 0)
(0.998115 0.000476923 0)
(0.997977 0.000601475 0)
(0.997845 0.000641566 0)
(0.997699 0.000786031 0)
(0.997567 0.000865827 0)
(0.997438 0.00103028 0)
(0.997316 0.00114686 0)
(0.997197 0.00131463 0)
(0.997069 0.00143797 0)
(0.996954 0.00160763 0)
(0.996833 0.00174548 0)
(0.99674 0.00192792 0)
(0.996641 0.0020821 0)
(0.996569 0.00227095 0)
(0.996478 0.00242415 0)
(0.996401 0.00259726 0)
(0.996311 0.00273108 0)
(0.996244 0.00287329 0)
(0.996144 0.00295643 0)
(0.995969 0.0029925 0)
(0.995551 0.00286711 0)
(1.00004 -0.000427572 0)
(0.999617 0.000252088 0)
(0.999775 -0.000141946 0)
(0.999614 7.37557e-05 0)
(0.99963 5.30787e-06 0)
(0.999562 6.69109e-05 0)
(0.999553 0.000112435 0)
(0.999443 8.89089e-05 0)
(0.999403 0.00012617 0)
(0.999296 9.80542e-05 0)
(0.999183 0.000169677 0)
(0.999057 0.000184348 0)
(0.999025 0.000243321 0)
(0.998866 0.000282124 0)
(0.998801 0.00033391 0)
(0.998683 0.000355636 0)
(0.998578 0.000400016 0)
(0.99845 0.000428352 0)
(0.998301 0.000499963 0)
(0.998158 0.000552117 0)
(0.998026 0.000660162 0)
(0.997906 0.000737778 0)
(0.997773 0.000876206 0)
(0.997656 0.000990432 0)
(0.997537 0.00113931 0)
(0.997421 0.00126672 0)
(0.997311 0.00141181 0)
(0.997194 0.00154447 0)
(0.997097 0.00169443 0)
(0.996991 0.00183592 0)
(0.996908 0.00198509 0)
(0.996809 0.00211318 0)
(0.996722 0.00223404 0)
(0.996613 0.00233252 0)
(0.996525 0.00243234 0)
(0.996429 0.00252236 0)
(0.996349 0.0026124 0)
(0.99623 0.00268148 0)
(0.996044 0.00273856 0)
(0.995666 0.00277726 0)
(1.00004 -0.000383293 0)
(0.999643 0.000202936 0)
(0.999775 -8.73881e-05 0)
(0.999633 4.59481e-05 0)
(0.999639 4.32769e-05 0)
(0.999581 6.07816e-05 0)
(0.999567 0.000108098 0)
(0.999455 0.000110409 0)
(0.999415 0.000141897 0)
(0.999313 0.000128518 0)
(0.999203 0.000188653 0)
(0.999077 0.000214006 0)
(0.999048 0.000261684 0)
(0.998889 0.000314705 0)
(0.998824 0.000359332 0)
(0.998707 0.000395827 0)
(0.998605 0.000442661 0)
(0.998484 0.000486077 0)
(0.998342 0.000559584 0)
(0.998209 0.000626817 0)
(0.998088 0.000740656 0)
(0.997982 0.000840671 0)
(0.997862 0.000980722 0)
(0.997751 0.00109985 0)
(0.99764 0.00123606 0)
(0.997532 0.00136539 0)
(0.997432 0.00150666 0)
(0.997326 0.00164383 0)
(0.997238 0.00177801 0)
(0.997138 0.00189796 0)
(0.997053 0.00200715 0)
(0.996946 0.0021052 0)
(0.996861 0.00220116 0)
(0.996767 0.00229909 0)
(0.9967 0.00240386 0)
(0.99662 0.00250828 0)
(0.99654 0.00260798 0)
(0.996402 0.00269345 0)
(0.996184 0.00276386 0)
(0.995762 0.00281653 0)
(1.00004 -0.000326543 0)
(0.999671 0.000144226 0)
(0.999776 -2.22287e-05 0)
(0.999653 1.5641e-05 0)
(0.999654 6.58471e-05 0)
(0.999595 7.7017e-05 0)
(0.999583 0.000105797 0)
(0.99947 0.000120902 0)
(0.999427 0.000155199 0)
(0.99933 0.000154925 0)
(0.999227 0.00020743 0)
(0.999099 0.000244616 0)
(0.999074 0.000284702 0)
(0.998916 0.000348247 0)
(0.998849 0.000390829 0)
(0.998734 0.000436591 0)
(0.998635 0.000489589 0)
(0.998523 0.000543716 0)
(0.998389 0.000626491 0)
(0.998272 0.000708562 0)
(0.998163 0.000833759 0)
(0.998069 0.000941 0)
(0.997956 0.00107372 0)
(0.997851 0.00118754 0)
(0.997752 0.00131315 0)
(0.997657 0.00143221 0)
(0.997569 0.00155825 0)
(0.997465 0.00168131 0)
(0.997369 0.00180215 0)
(0.997256 0.00191728 0)
(0.997168 0.00202481 0)
(0.997072 0.00212727 0)
(0.997007 0.00222716 0)
(0.996932 0.00232723 0)
(0.996877 0.00242505 0)
(0.996799 0.0025187 0)
(0.996711 0.0026043 0)
(0.996561 0.00268101 0)
(0.99633 0.00274848 0)
(0.995907 0.00280943 0)
(1.00004 -0.00027927 0)
(0.999704 9.64335e-05 0)
(0.999781 1.57865e-05 0)
(0.99967 1.61346e-05 0)
(0.999672 6.7352e-05 0)
(0.999612 9.58551e-05 0)
(0.999599 0.000114095 0)
(0.999489 0.000133863 0)
(0.999446 0.000168444 0)
(0.99935 0.000182462 0)
(0.999251 0.000230833 0)
(0.999123 0.000277379 0)
(0.999103 0.000311095 0)
(0.998948 0.000381894 0)
(0.998879 0.000426834 0)
(0.998769 0.000479375 0)
(0.998675 0.00054371 0)
(0.998572 0.000607997 0)
(0.998448 0.000705403 0)
(0.998346 0.000799666 0)
(0.998247 0.00092449 0)
(0.998157 0.00103058 0)
(0.998052 0.00115421 0)
(0.997951 0.00126826 0)
(0.997857 0.00138928 0)
(0.997764 0.00150614 0)
(0.997684 0.00162071 0)
(0.997591 0.0017317 0)
(0.997515 0.00183452 0)
(0.997421 0.001939 0)
(0.997341 0.00203898 0)
(0.997245 0.00214314 0)
(0.997177 0.0022419 0)
(0.997103 0.00234193 0)
(0.99705 0.00243394 0)
(0.996973 0.00252374 0)
(0.996886 0.00260425 0)
(0.996736 0.00268155 0)
(0.996506 0.00275072 0)
(0.996085 0.00281746 0)
(1.00004 -0.000229652 0)
(0.999736 5.23884e-05 0)
(0.999789 3.5486e-05 0)
(0.999688 3.36335e-05 0)
(0.999693 8.07852e-05 0)
(0.999629 0.000112044 0)
(0.999616 0.000128424 0)
(0.999507 0.000150683 0)
(0.999463 0.000181899 0)
(0.999373 0.000201858 0)
(0.999281 0.000253849 0)
(0.99915 0.000307903 0)
(0.999136 0.000343004 0)
(0.998983 0.000417564 0)
(0.998912 0.000468066 0)
(0.99881 0.000525464 0)
(0.99872 0.000604464 0)
(0.998631 0.000677202 0)
(0.998518 0.0007865 0)
(0.998426 0.00088238 0)
(0.998333 0.00100077 0)
(0.998251 0.00110408 0)
(0.998156 0.00122573 0)
(0.998064 0.00134116 0)
(0.997982 0.00146331 0)
(0.997897 0.00158005 0)
(0.99782 0.00169001 0)
(0.99772 0.00179216 0)
(0.997635 0.00188044 0)
(0.997536 0.00196647 0)
(0.997468 0.00204812 0)
(0.997393 0.00214039 0)
(0.997347 0.00223284 0)
(0.997286 0.00233085 0)
(0.997239 0.00242138 0)
(0.997164 0.00251043 0)
(0.997077 0.00258945 0)
(0.996927 0.00266567 0)
(0.996698 0.00273316 0)
(0.996277 0.00279834 0)
(1.00004 -0.000184293 0)
(0.99977 1.31174e-05 0)
(0.999804 5.18261e-05 0)
(0.999705 5.44434e-05 0)
(0.999715 8.92102e-05 0)
(0.999649 0.000120793 0)
(0.999634 0.000138365 0)
(0.999529 0.000165563 0)
(0.999487 0.000201941 0)
(0.999398 0.000228505 0)
(0.999311 0.00027834 0)
(0.99918 0.000340626 0)
(0.999171 0.000375925 0)
(0.999024 0.000454432 0)
(0.998953 0.000515147 0)
(0.998859 0.000577818 0)
(0.998778 0.000671703 0)
(0.998698 0.000751748 0)
(0.998595 0.000860891 0)
(0.998509 0.000956779 0)
(0.998424 0.00106994 0)
(0.99835 0.00117246 0)
(0.998267 0.00128862 0)
(0.998181 0.00139949 0)
(0.998104 0.00151029 0)
(0.998016 0.00161669 0)
(0.997938 0.00171428 0)
(0.997838 0.00181155 0)
(0.997761 0.00190026 0)
(0.997676 0.00199516 0)
(0.997625 0.00208463 0)
(0.997565 0.00218141 0)
(0.997531 0.00227142 0)
(0.997478 0.00236449 0)
(0.997435 0.00244796 0)
(0.997361 0.00253083 0)
(0.997274 0.00260359 0)
(0.997123 0.00267464 0)
(0.996893 0.00273692 0)
(0.996472 0.00279762 0)
(1.00004 -0.000143903 0)
(0.999803 -1.40606e-05 0)
(0.999824 5.86237e-05 0)
(0.999724 7.25398e-05 0)
(0.999736 0.000105359 0)
(0.999668 0.00013364 0)
(0.999656 0.00015553 0)
(0.999552 0.000183349 0)
(0.999509 0.000222444 0)
(0.999425 0.000253289 0)
(0.999348 0.0003044 0)
(0.999214 0.000374509 0)
(0.99921 0.0004141 0)
(0.999071 0.000495979 0)
(0.998998 0.00056917 0)
(0.998917 0.000636936 0)
(0.998842 0.000738539 0)
(0.99877 0.00082086 0)
(0.998675 0.000926782 0)
(0.998596 0.00102094 0)
(0.998519 0.00113295 0)
(0.998452 0.00123385 0)
(0.998378 0.00134636 0)
(0.998296 0.00145389 0)
(0.998226 0.00155785 0)
(0.998144 0.00165887 0)
(0.998076 0.00175055 0)
(0.997982 0.00184762 0)
(0.997913 0.00193669 0)
(0.997835 0.0020334 0)
(0.997792 0.00212098 0)
(0.997741 0.00221416 0)
(0.997713 0.00229707 0)
(0.997665 0.00238275 0)
(0.997625 0.00245775 0)
(0.997553 0.00253354 0)
(0.997466 0.00259944 0)
(0.997316 0.00266522 0)
(0.997086 0.00272241 0)
(0.996666 0.0027791 0)
(1.00004 -0.000106961 0)
(0.999835 -3.80895e-05 0)
(0.999849 6.45395e-05 0)
(0.999742 9.24513e-05 0)
(0.999757 0.000121145 0)
(0.99969 0.00014781 0)
(0.999676 0.000172491 0)
(0.999576 0.000200332 0)
(0.999537 0.000242234 0)
(0.999455 0.00028068 0)
(0.999384 0.000330978 0)
(0.999252 0.000407412 0)
(0.999252 0.000453882 0)
(0.999124 0.000537135 0)
(0.999052 0.000626968 0)
(0.99898 0.000699448 0)
(0.998913 0.000801205 0)
(0.998846 0.000884099 0)
(0.998759 0.000988641 0)
(0.998689 0.00108132 0)
(0.998621 0.00119046 0)
(0.998561 0.00129141 0)
(0.998499 0.00139777 0)
(0.99842 0.00150454 0)
(0.998353 0.00160275 0)
(0.998268 0.00170236 0)
(0.998203 0.00178725 0)
(0.998118 0.00188006 0)
(0.998062 0.00196281 0)
(0.997995 0.00205554 0)
(0.997962 0.00213777 0)
(0.997918 0.00222614 0)
(0.997895 0.00230321 0)
(0.997851 0.00238323 0)
(0.997814 0.00245259 0)
(0.997744 0.00252295 0)
(0.997659 0.00258406 0)
(0.99751 0.00264516 0)
(0.997281 0.00269848 0)
(0.996862 0.00275117 0)
(1.00004 -7.64515e-05 0)
(0.999864 -4.07253e-05 0)
(0.99988 5.68444e-05 0)
(0.999765 0.00010322 0)
(0.999778 0.000138504 0)
(0.99971 0.000164424 0)
(0.999699 0.000191865 0)
(0.999602 0.000223272 0)
(0.999564 0.000264696 0)
(0.999486 0.000306685 0)
(0.999427 0.000359264 0)
(0.999295 0.000445991 0)
(0.999299 0.000500669 0)
(0.999186 0.000584888 0)
(0.999113 0.000684105 0)
(0.999047 0.000758547 0)
(0.998985 0.000857436 0)
(0.998926 0.00094005 0)
(0.998847 0.00104563 0)
(0.998785 0.00113736 0)
(0.998727 0.00124246 0)
(0.998672 0.00134235 0)
(0.998618 0.00144085 0)
(0.998544 0.00154337 0)
(0.998484 0.00163446 0)
(0.998403 0.00173229 0)
(0.998346 0.00181579 0)
(0.998267 0.00190869 0)
(0.998219 0.00198928 0)
(0.998161 0.00207843 0)
(0.998136 0.00215603 0)
(0.998098 0.0022389 0)
(0.99808 0.00231093 0)
(0.998039 0.00238531 0)
(0.998004 0.00245 0)
(0.997937 0.00251508 0)
(0.997852 0.00257195 0)
(0.997705 0.0026282 0)
(0.997476 0.00267775 0)
(0.997058 0.00272614 0)
(1.00005 -5.39593e-05 0)
(0.999888 -2.54173e-05 0)
(0.999907 4.14836e-05 0)
(0.999787 0.000108146 0)
(0.999798 0.000154089 0)
(0.99973 0.000184096 0)
(0.999719 0.000214154 0)
(0.999626 0.000247992 0)
(0.999592 0.00029291 0)
(0.999517 0.000339999 0)
(0.999469 0.000392594 0)
(0.999342 0.000485812 0)
(0.999347 0.000547061 0)
(0.999249 0.000627982 0)
(0.999178 0.000731074 0)
(0.999115 0.000806701 0)
(0.999061 0.000906314 0)
(0.99901 0.000989978 0)
(0.998941 0.0010957 0)
(0.998883 0.00119043 0)
(0.998835 0.0012893 0)
(0.998784 0.00138991 0)
(0.99874 0.0014819 0)
(0.99867 0.00158293 0)
(0.998615 0.00166789 0)
(0.998538 0.00176133 0)
(0.998486 0.00183912 0)
(0.998416 0.00192738 0)
(0.998377 0.00200441 0)
(0.998327 0.00208904 0)
(0.998307 0.00216308 0)
(0.998275 0.00224024 0)
(0.99826 0.00230807 0)
(0.998224 0.00237636 0)
(0.99819 0.00243699 0)
(0.998125 0.00249639 0)
(0.998041 0.00254963 0)
(0.997895 0.00260076 0)
(0.997667 0.00264709 0)
(0.997249 0.00269094 0)
(1.00005 -3.37838e-05 0)
(0.999904 -1.33497e-05 0)
(0.999931 3.65859e-05 0)
(0.999814 0.00010863 0)
(0.999818 0.000167935 0)
(0.999747 0.000203364 0)
(0.999739 0.000238452 0)
(0.999649 0.000276202 0)
(0.999619 0.000324027 0)
(0.999547 0.000377795 0)
(0.999514 0.000428737 0)
(0.999391 0.000523448 0)
(0.999395 0.000591341 0)
(0.999312 0.000667702 0)
(0.999244 0.000772942 0)
(0.999185 0.00085226 0)
(0.999138 0.000952379 0)
(0.999096 0.00103816 0)
(0.999037 0.00114107 0)
(0.998983 0.00123937 0)
(0.998944 0.00133281 0)
(0.998897 0.00143212 0)
(0.998862 0.00151858 0)
(0.998795 0.00161469 0)
(0.998745 0.00169385 0)
(0.998672 0.00178043 0)
(0.998627 0.00185412 0)
(0.998567 0.00193658 0)
(0.998537 0.00201112 0)
(0.998495 0.0020907 0)
(0.99848 0.00216231 0)
(0.998452 0.00223405 0)
(0.99844 0.00229862 0)
(0.998407 0.00236122 0)
(0.998374 0.0024183 0)
(0.99831 0.00247247 0)
(0.998227 0.00252242 0)
(0.998082 0.00256899 0)
(0.997854 0.00261236 0)
(0.997437 0.00265227 0)
(1.00005 -1.89578e-05 0)
(0.999918 -5.90423e-07 0)
(0.999952 4.73099e-05 0)
(0.999838 0.000105928 0)
(0.99984 0.000172433 0)
(0.999766 0.000219984 0)
(0.999757 0.000263995 0)
(0.999672 0.000305769 0)
(0.999648 0.000357232 0)
(0.999578 0.000417951 0)
(0.999555 0.000466637 0)
(0.999442 0.000556828 0)
(0.999444 0.000634323 0)
(0.999376 0.000706299 0)
(0.999315 0.000812048 0)
(0.999259 0.000896311 0)
(0.99922 0.000995488 0)
(0.999185 0.00108464 0)
(0.999139 0.00118199 0)
(0.999087 0.001283 0)
(0.999055 0.00137213 0)
(0.999012 0.00146837 0)
(0.998982 0.00154922 0)
(0.998919 0.00163829 0)
(0.99887 0.00171235 0)
(0.998802 0.0017922 0)
(0.998765 0.00186309 0)
(0.998718 0.00193985 0)
(0.998696 0.00201196 0)
(0.998664 0.0020859 0)
(0.998652 0.00215475 0)
(0.998628 0.00222089 0)
(0.998616 0.00228215 0)
(0.998586 0.00233917 0)
(0.998553 0.00239275 0)
(0.998492 0.00244186 0)
(0.998408 0.00248858 0)
(0.998265 0.00253083 0)
(0.998036 0.00257133 0)
(0.997621 0.00260753 0)
(1.00005 -6.79786e-06 0)
(0.999927 1.35454e-05 0)
(0.999968 5.60478e-05 0)
(0.99986 0.000108721 0)
(0.999863 0.000176744 0)
(0.999787 0.000232692 0)
(0.999778 0.000286784 0)
(0.999694 0.000337285 0)
(0.999677 0.00038899 0)
(0.999608 0.00045626 0)
(0.999597 0.00050781 0)
(0.999495 0.000590842 0)
(0.999496 0.000675393 0)
(0.999441 0.000748533 0)
(0.999389 0.000848658 0)
(0.999338 0.000937885 0)
(0.999305 0.00103492 0)
(0.999274 0.00112592 0)
(0.999241 0.00121813 0)
(0.999193 0.00131648 0)
(0.999166 0.00140363 0)
(0.999125 0.00149319 0)
(0.999098 0.00156989 0)
(0.999039 0.00164961 0)
(0.998995 0.00172102 0)
(0.998934 0.00179543 0)
(0.998906 0.00186582 0)
(0.998869 0.00193769 0)
(0.998857 0.00200742 0)
(0.998832 0.00207563 0)
(0.998824 0.00214096 0)
(0.998803 0.0022017 0)
(0.998791 0.00225918 0)
(0.998761 0.00231132 0)
(0.99873 0.00236107 0)
(0.998669 0.0024059 0)
(0.998586 0.00244909 0)
(0.998444 0.00248774 0)
(0.998215 0.00252509 0)
(0.997799 0.00255826 0)
(1.00005 1.3689e-06 0)
(0.999935 2.85357e-05 0)
(0.999981 6.72652e-05 0)
(0.999878 0.000118462 0)
(0.999885 0.000181311 0)
(0.999809 0.000241734 0)
(0.9998 0.000303976 0)
(0.999717 0.000365755 0)
(0.999707 0.00042114 0)
(0.999641 0.000493517 0)
(0.999634 0.000551137 0)
(0.999547 0.00062722 0)
(0.999551 0.00071113 0)
(0.999504 0.000789097 0)
(0.999464 0.000882324 0)
(0.999419 0.000972294 0)
(0.999393 0.00106805 0)
(0.999367 0.0011595 0)
(0.999343 0.00124866 0)
(0.999301 0.00134154 0)
(0.999276 0.00142631 0)
(0.999236 0.00150918 0)
(0.99921 0.0015819 0)
(0.999156 0.00165396 0)
(0.999118 0.00172285 0)
(0.999068 0.00179319 0)
(0.999048 0.00186229 0)
(0.999021 0.00193019 0)
(0.999016 0.00199646 0)
(0.998997 0.00205942 0)
(0.998992 0.00212006 0)
(0.998973 0.00217576 0)
(0.998961 0.00222874 0)
(0.998932 0.00227656 0)
(0.9989 0.00232219 0)
(0.998841 0.00236328 0)
(0.998758 0.00240275 0)
(0.998617 0.00243821 0)
(0.998388 0.00247229 0)
(0.997973 0.00250274 0)
(1.00005 8.47366e-06 0)
(0.99994 4.14372e-05 0)
(0.99999 8.03752e-05 0)
(0.999895 0.000129027 0)
(0.999904 0.000191973 0)
(0.999831 0.000250354 0)
(0.999826 0.000315775 0)
(0.999744 0.000388046 0)
(0.999738 0.000450461 0)
(0.999675 0.000526319 0)
(0.999674 0.00059244 0)
(0.999597 0.000669629 0)
(0.999607 0.000746065 0)
(0.99957 0.000826091 0)
(0.999538 0.000916939 0)
(0.999502 0.00100103 0)
(0.999484 0.00109557 0)
(0.999461 0.00118319 0)
(0.999445 0.00127184 0)
(0.999407 0.001357 0)
(0.999385 0.00143879 0)
(0.999343 0.00151493 0)
(0.999319 0.00158466 0)
(0.999271 0.00165221 0)
(0.999243 0.00171866 0)
(0.999203 0.00178607 0)
(0.999192 0.00185216 0)
(0.999172 0.00191679 0)
(0.999172 0.00197833 0)
(0.999158 0.00203701 0)
(0.999156 0.0020921 0)
(0.999138 0.00214373 0)
(0.999126 0.00219168 0)
(0.999097 0.00223617 0)
(0.999066 0.00227743 0)
(0.999007 0.0023157 0)
(0.998925 0.00235131 0)
(0.998784 0.0023843 0)
(0.998556 0.002415 0)
(0.99814 0.00244335 0)
(1.00005 1.36812e-05 0)
(0.999944 5.21547e-05 0)
(0.999998 9.51607e-05 0)
(0.999908 0.000142314 0)
(0.999922 0.000205045 0)
(0.999852 0.000264516 0)
(0.999853 0.000327773 0)
(0.999774 0.000404936 0)
(0.999773 0.000473735 0)
(0.999715 0.000551964 0)
(0.999717 0.000624146 0)
(0.999645 0.000708549 0)
(0.999661 0.000782288 0)
(0.999636 0.000855331 0)
(0.999611 0.000948299 0)
(0.999583 0.00102506 0)
(0.999574 0.00111505 0)
(0.999557 0.0011968 0)
(0.999546 0.00128197 0)
(0.999512 0.00136151 0)
(0.999492 0.00143738 0)
(0.99945 0.00150976 0)
(0.999429 0.0015762 0)
(0.999387 0.00164286 0)
(0.999369 0.00170578 0)
(0.999339 0.00177068 0)
(0.999336 0.00183148 0)
(0.999321 0.00189233 0)
(0.999325 0.00194795 0)
(0.999314 0.0020023 0)
(0.999313 0.00205158 0)
(0.999296 0.00209908 0)
(0.999286 0.00214203 0)
(0.999257 0.002183 0)
(0.999226 0.00222011 0)
(0.999168 0.00225534 0)
(0.999086 0.00228737 0)
(0.998945 0.00231765 0)
(0.998718 0.00234523 0)
(0.998302 0.00237116 0)
(1.00005 1.81964e-05 0)
(0.999947 6.26603e-05 0)
(1 0.000108942 0)
(0.99992 0.000157856 0)
(0.999939 0.000220512 0)
(0.99987 0.000283123 0)
(0.999879 0.000345333 0)
(0.999806 0.000423138 0)
(0.999809 0.000494212 0)
(0.999755 0.000573481 0)
(0.999768 0.000644341 0)
(0.999701 0.000732987 0)
(0.999712 0.00081238 0)
(0.999703 0.000876893 0)
(0.999685 0.00097055 0)
(0.999661 0.00104618 0)
(0.999661 0.00113098 0)
(0.999649 0.00120828 0)
(0.999645 0.00128825 0)
(0.999612 0.00136615 0)
(0.999596 0.00143709 0)
(0.999557 0.00150812 0)
(0.999541 0.0015713 0)
(0.999505 0.00163778 0)
(0.999495 0.00169744 0)
(0.999472 0.00176013 0)
(0.999474 0.00181594 0)
(0.999464 0.00187301 0)
(0.999471 0.00192346 0)
(0.999462 0.00197389 0)
(0.999463 0.00201855 0)
(0.999447 0.00206243 0)
(0.999437 0.00210145 0)
(0.999409 0.00213927 0)
(0.999378 0.00217315 0)
(0.999321 0.00220567 0)
(0.999239 0.00223503 0)
(0.999099 0.00226294 0)
(0.99887 0.00228825 0)
(0.998455 0.00231206 0)
(1.00005 2.14103e-05 0)
(0.99995 7.04622e-05 0)
(1.00001 0.000121542 0)
(0.99993 0.000173334 0)
(0.999955 0.000235722 0)
(0.999889 0.000301628 0)
(0.999905 0.000365088 0)
(0.999837 0.000442487 0)
(0.999845 0.000513879 0)
(0.999795 0.000594059 0)
(0.999815 0.000662749 0)
(0.999761 0.000742868 0)
(0.999765 0.000830854 0)
(0.999767 0.000887936 0)
(0.999765 0.000972752 0)
(0.999741 0.00104768 0)
(0.999748 0.00112308 0)
(0.999741 0.0011951 0)
(0.999748 0.00126325 0)
(0.999717 0.00133765 0)
(0.999704 0.00140169 0)
(0.999667 0.00146992 0)
(0.999657 0.00152766 0)
(0.999628 0.0015909 0)
(0.999623 0.00164641 0)
(0.999605 0.00170527 0)
(0.999611 0.00175682 0)
(0.999605 0.00180897 0)
(0.999613 0.00185507 0)
(0.999607 0.00190052 0)
(0.999609 0.00194143 0)
(0.999595 0.00198084 0)
(0.999585 0.00201677 0)
(0.999559 0.00205072 0)
(0.999528 0.00208205 0)
(0.999472 0.00211127 0)
(0.999391 0.00213856 0)
(0.999251 0.00216375 0)
(0.999022 0.00218747 0)
(0.998607 0.00220911 0)
(1.00005 2.50757e-05 0)
(0.999953 7.89564e-05 0)
(1.00002 0.000133741 0)
(0.999941 0.000188349 0)
(0.999972 0.000250856 0)
(0.999909 0.000318174 0)
(0.99993 0.00038215 0)
(0.999869 0.000459091 0)
(0.999883 0.000531123 0)
(0.999836 0.000610726 0)
(0.99986 0.000683175 0)
(0.999821 0.000755895 0)
(0.99982 0.000848615 0)
(0.999822 0.000911607 0)
(0.999835 0.000988375 0)
(0.999814 0.00106704 0)
(0.999824 0.00114104 0)
(0.999817 0.00121499 0)
(0.999834 0.00127838 0)
(0.99981 0.00134994 0)
(0.999803 0.00141114 0)
(0.999769 0.00147676 0)
(0.999764 0.00153217 0)
(0.999743 0.00159099 0)
(0.999744 0.00164344 0)
(0.999732 0.00169725 0)
(0.99974 0.00174569 0)
(0.999736 0.0017928 0)
(0.999745 0.00183578 0)
(0.999742 0.00187649 0)
(0.999744 0.00191448 0)
(0.999733 0.00194964 0)
(0.999723 0.00198275 0)
(0.999698 0.00201263 0)
(0.999668 0.00204096 0)
(0.999613 0.00206612 0)
(0.999533 0.00209024 0)
(0.999395 0.00211146 0)
(0.999167 0.00213201 0)
(0.998753 0.00214994 0)
(1.00005 2.47952e-05 0)
(0.999955 8.58052e-05 0)
(1.00002 0.000144402 0)
(0.999949 0.000205337 0)
(0.999986 0.000266247 0)
(0.999927 0.000335018 0)
(0.999954 0.00039734 0)
(0.9999 0.000472042 0)
(0.99992 0.000541671 0)
(0.99988 0.000615845 0)
(0.999906 0.000688138 0)
(0.999883 0.000749933 0)
(0.999889 0.000830634 0)
(0.999888 0.000893456 0)
(0.999917 0.000952641 0)
(0.999905 0.00101898 0)
(0.999921 0.00107838 0)
(0.999913 0.00114217 0)
(0.999934 0.00119451 0)
(0.999916 0.00125548 0)
(0.999911 0.00131228 0)
(0.99988 0.00137605 0)
(0.999876 0.00143475 0)
(0.99986 0.00149305 0)
(0.999865 0.00154518 0)
(0.999858 0.00159398 0)
(0.999867 0.00163878 0)
(0.999865 0.0016802 0)
(0.999875 0.00172003 0)
(0.999874 0.00175714 0)
(0.999877 0.00179418 0)
(0.999866 0.00182865 0)
(0.999855 0.00186324 0)
(0.999828 0.00189491 0)
(0.999794 0.0019264 0)