/*--------------------------------*- C++ -*----------------------------------*\
| =========                 |                                                 |
| \\      /  F ield         | OpenFOAM: The Open Source CFD Toolbox           |
|  \\    /   O peration     | Version:  2312                                  |
|   \\  /    A nd           | Website:  www.openfoam.com                      |
|    \\/     M anipulation  |                                                 |
\*---------------------------------------------------------------------------*/
FoamFile
{
    version     2.0;
    format      ascii;
    arch        "LSB;label=32;scalar=64";
    class       volScalarField;
    location    "0.4";
    object      p;
}
// * * * * * * * * * * * * * * * * * * * * * * * * * * * * * * * * * * * * * //

dimensions      [0 2 -2 0 0 0 0];

internalField   nonuniform List<scalar> 
5600
(
9.45568e-10
0.000466304
0.00030222
0.000453256
0.000378079
0.000532337
0.000502854
0.000639749
0.000666928
0.000811874
0.000860617
0.000983662
0.00107813
0.00119996
0.00130979
0.00144046
0.00155015
0.00170178
0.00185196
0.00199008
0.00214073
0.00231427
0.00249524
0.00267881
0.00287122
0.00307899
0.00329114
0.00351361
0.00374158
0.00398413
0.00423923
0.00451375
0.004803
0.00510343
0.00540261
0.00569102
0.0059756
0.00625456
0.00646434
0.00643048
2.3929e-06
0.000464158
0.000304323
0.000449333
0.000379699
0.000528984
0.000505765
0.000635098
0.000669964
0.000807015
0.000860927
0.000978706
0.0010786
0.00119487
0.00130905
0.00143576
0.00154756
0.00169614
0.00184724
0.00198585
0.00213517
0.00230842
0.00248725
0.00266717
0.00285814
0.00306232
0.00327381
0.00349336
0.00372026
0.00395682
0.00420031
0.00444502
0.00468437
0.00492
0.00515288
0.00537237
0.00555148
0.0056476
0.00558977
0.00525507
4.57319e-06
0.000462625
0.000305744
0.000447711
0.000380043
0.00052767
0.000506774
0.000632701
0.000670981
0.000804797
0.000861134
0.000976597
0.00107826
0.00119316
0.00130752
0.00143398
0.00154547
0.00169393
0.00184432
0.00198168
0.00213064
0.00230299
0.00248043
0.00265888
0.00284788
0.00305026
0.00325866
0.0034738
0.00369305
0.00391856
0.00414714
0.0043739
0.00459341
0.00480882
0.00501916
0.00521267
0.00536166
0.00542973
0.0053554
0.0050321
8.19374e-06
0.000459052
0.000308785
0.000443044
0.000382137
0.000523286
0.000510085
0.000627362
0.000674634
0.000798442
0.000861737
0.000970668
0.00107848
0.00118703
0.00130604
0.00142878
0.00154151
0.00168897
0.0018384
0.00197496
0.00212288
0.00229248
0.00246904
0.00264338
0.00283042
0.00302808
0.00323319
0.00344185
0.00365118
0.00385789
0.00405918
0.00425917
0.00445816
0.00465089
0.00482525
0.00496469
0.00504478
0.0050326
0.00487527
0.00447953
1.15651e-05
0.000455538
0.000311233
0.000439757
0.000383156
0.000519994
0.000511977
0.00062272
0.000676238
0.000794847
0.00086176
0.000966752
0.00107728
0.00118366
0.00130279
0.00142528
0.00153708
0.00168316
0.00183194
0.00196704
0.00211341
0.0022807
0.00245488
0.00262581
0.00280872
0.00300121
0.00319852
0.00339611
0.00359011
0.00377897
0.00396204
0.00414475
0.0043253
0.00449527
0.00464117
0.00474823
0.00479644
0.0047587
0.00458841
0.00419796
1.61753e-05
0.000449972
0.000315332
0.000433956
0.000387159
0.000513747
0.00051601
0.000616198
0.000679776
0.000787483
0.00086161
0.000960646
0.00107477
0.00118039
0.00129814
0.00141956
0.00153051
0.00167534
0.00182312
0.00195625
0.00210082
0.00226464
0.00243614
0.00260219
0.00277957
0.00296492
0.00315163
0.00333402
0.00350685
0.0036766
0.00384793
0.00401997
0.00418453
0.00433311
0.00445453
0.00453637
0.00455972
0.00449743
0.00430325
0.00389034
2.08492e-05
0.000443954
0.000318994
0.000428971
0.000388852
0.000508353
0.00051852
0.000609692
0.000681379
0.000782665
0.000859846
0.000957058
0.00107095
0.00117592
0.00129261
0.00141282
0.00152284
0.00166609
0.00181244
0.00194319
0.00208506
0.00224515
0.00241204
0.00257269
0.00274192
0.00291721
0.00308914
0.00325264
0.00340826
0.00356633
0.00372774
0.0038874
0.00403552
0.00416468
0.00426662
0.00433174
0.00434332
0.00427506
0.00407976
0.00366642
2.68116e-05
0.000435612
0.000324379
0.000421672
0.000393323
0.000499798
0.000522847
0.000602307
0.000682817
0.000777228
0.000855674
0.000953301
0.00106592
0.00116981
0.0012854
0.00140477
0.00151333
0.00165462
0.00179903
0.00192692
0.00206525
0.002221
0.00238141
0.00253463
0.00269256
0.00285368
0.00300733
0.00315431
0.00329946
0.00344849
0.00359859
0.00374409
0.00387651
0.00399044
0.00407925
0.00413524
0.00414353
0.00407959
0.00389797
0.00350991
3.3122e-05
0.000426287
0.000329462
0.000414957
0.000397201
0.000492543
0.000524948
0.000595235
0.000682751
0.000773127
0.000850619
0.000948242
0.00106025
0.00116288
0.00127728
0.00139482
0.00150182
0.00164049
0.00178287
0.00190702
0.00204059
0.00219146
0.00234379
0.00248629
0.00262913
0.00277138
0.00291
0.00304745
0.00318343
0.00331891
0.00345263
0.00358265
0.00370568
0.00381912
0.00391837
0.00399508
0.0040319
0.00399686
0.00382728
0.00339881
4.08381e-05
0.00041425
0.000336019
0.000406237
0.000402502
0.000482537
0.000528336
0.000587313
0.000679038
0.00077033
0.00084468
0.000941379
0.00105369
0.00115457
0.00126754
0.00138214
0.00148816
0.00162317
0.00176338
0.0018828
0.00200988
0.00215301
0.00229446
0.00242153
0.00255003
0.00268244
0.00281229
0.00293821
0.0030599
0.00317442
0.00327921
0.00337247
0.00345655
0.00353823
0.00362225
0.00370153
0.00377487
0.00386771
0.00405019
0.00446143
4.91226e-05
0.000400887
0.000342472
0.000398147
0.000406692
0.000474896
0.000528308
0.000583834
0.000674908
0.000764807
0.00083794
0.000933971
0.00104528
0.00114457
0.00125569
0.00136775
0.00147133
0.00160271
0.00173915
0.00185359
0.0019711
0.00210249
0.00223102
0.00234552
0.00246575
0.00259024
0.00270995
0.00282111
0.00292611
0.00302526
0.00312027
0.00321421
0.00331137
0.0034111
0.00350474
0.00358957
0.00367538
0.00378881
0.00398172
0.00435414
5.895e-05
0.000384229
0.000349297
0.0003895
0.000411085
0.000465954
0.000521704
0.000580045
0.00066987
0.000758626
0.000830456
0.000925105
0.00103506
0.0011331
0.00124157
0.00135074
0.00145074
0.00157837
0.00170886
0.00181587
0.00192148
0.00203792
0.00215875
0.00226674
0.00237723
0.00249135
0.00259969
0.00269851
0.00279256
0.00288777
0.00298824
0.00309171
0.00318719
0.00326863
0.00333836
0.00340715
0.00349295
0.00362458
0.00385061
0.00426589
6.94406e-05
0.000366635
0.000355786
0.00038138
0.000411425
0.000463816
0.000515333
0.000574348
0.00066482
0.000752078
0.000821619
0.000914512
0.00102296
0.00111914
0.00122453
0.00133056
0.00142605
0.00154828
0.00167138
0.00176663
0.00186182
0.001969
0.00208246
0.00218336
0.00228184
0.00238274
0.00248061
0.00257657
0.00267643
0.0027814
0.00288297
0.00297267
0.00304607
0.00310702
0.00316441
0.00323194
0.00332641
0.00347223
0.00371142
0.00412997
8.14289e-05
0.000344947
0.000361083
0.000377428
0.000408474
0.000459701
0.000508705
0.000566238
0.0006572
0.000744369
0.000811382
0.000901885
0.00100855
0.00110264
0.00120444
0.00130633
0.00139599
0.00150995
0.00162495
0.00170833
0.00179555
0.00189694
0.00200195
0.00209586
0.00218675
0.00228167
0.00237458
0.00246395
0.00255488
0.00265192
0.00274578
0.00282595
0.0028887
0.00294097
0.0029939
0.00306116
0.00315761
0.00330546
0.00354443
0.00396014
9.4009e-05
0.000324522
0.000362816
0.000373769
0.000403375
0.000455028
0.000503244
0.000558433
0.000647648
0.000734615
0.000799369
0.000887189
0.000991709
0.00108336
0.00118023
0.00127637
0.00135962
0.00146313
0.0015715
0.00164751
0.00172378
0.00181877
0.00191598
0.00200124
0.00208294
0.00217221
0.00226572
0.00235797
0.00244622
0.00253037
0.00260682
0.00267168
0.00272428
0.00277069
0.00282079
0.00288678
0.0029825
0.00312923
0.00336705
0.00378218
0.000107599
0.000303429
0.000358972
0.000370695
0.00039907
0.000449621
0.000496746
0.000549376
0.000636543
0.000722454
0.000784781
0.000869503
0.000971539
0.00106042
0.00115139
0.00123969
0.00131658
0.00140999
0.00151091
0.00158332
0.00164745
0.00173209
0.00182344
0.00190301
0.00198006
0.00206795
0.00216317
0.00225129
0.0023274
0.00239521
0.00245621
0.00250951
0.0025549
0.00259722
0.00264498
0.00270939
0.00280395
0.00294979
0.00318691
0.00360136
0.000121403
0.00028396
0.000350533
0.000366938
0.000394604
0.000443411
0.000489052
0.000539309
0.000624018
0.000708548
0.00076781
0.000848099
0.000947134
0.00103269
0.00111763
0.00119692
0.00126711
0.00135288
0.00144376
0.0015129
0.00156869
0.00164084
0.00172742
0.0018054
0.00187887
0.00196001
0.00204823
0.00212912
0.00219544
0.00225116
0.00230058
0.00234511
0.00238474
0.00242352
0.00246896
0.00253172
0.00262511
0.00277024
0.00300704
0.00342141
0.000135284
0.000265029
0.000337338
0.000361998
0.000389894
0.000436798
0.000480895
0.000527882
0.000609078
0.000692371
0.0007485
0.000822852
0.000917474
0.000998897
0.00107826
0.00114939
0.00121145
0.00129127
0.00137178
0.00143468
0.00148617
0.00154691
0.00162614
0.00170232
0.00177361
0.00184803
0.00192613
0.00199773
0.00205537
0.00210234
0.00214321
0.00218087
0.00221566
0.00225119
0.00229415
0.00235489
0.0024466
0.00259042
0.0028262
0.00323997
0.000149042
0.000248491
0.000318403
0.000354517
0.000384557
0.000429339
0.000471718
0.000515495
0.000591726
0.000673141
0.000726244
0.000793605
0.000882751
0.000958345
0.00103194
0.0010977
0.00115014
0.0012237
0.00129767
0.00135032
0.00139726
0.00145008
0.00152092
0.00159399
0.00166256
0.00173088
0.00179861
0.00186027
0.00190951
0.00194937
0.00198381
0.00201621
0.00204695
0.00207938
0.00211969
0.00217811
0.00226796
0.00241052
0.00264561
0.00305922
0.000159625
0.000234621
0.000299876
0.000342512
0.000376829
0.000420678
0.000461175
0.000502049
0.000572601
0.000650433
0.000700282
0.000759833
0.000842572
0.00091268
0.000978807
0.00104047
0.00108412
0.0011483
0.00121961
0.00126385
0.0013024
0.00134867
0.00141186
0.0014809
0.00154557
0.00160804
0.001667
0.00171951
0.00176038
0.00179299
0.00182149
0.00184956
0.0018775
0.00190783
0.00194608
0.00200227
0.00209013
0.00223131
0.00246582
0.0028794
0.000166996
0.00022496
0.000280842
0.000324323
0.000365236
0.000410494
0.000449181
0.000486679
0.000551407
0.00062493
0.000670627
0.000720881
0.000796192
0.000862117
0.000920228
0.000977027
0.00101395
0.00106508
0.00113398
0.00117554
0.00120423
0.00124254
0.00129835
0.0013635
0.00142414
0.00148044
0.0015313
0.00157549
0.00160886
0.0016345
0.00165704
0.00168082
0.00170665
0.00173601
0.00177336
0.00182795
0.00191387
0.00205338
0.002287
0.00270045
0.000171366
0.000215369
0.000262781
0.000304811
0.000349081
0.000396697
0.000434914
0.00046889
0.000527168
0.000596338
0.000638298
0.000677789
0.000742851
0.000805512
0.00085688
0.000907069
0.00093962
0.000976438
0.00103849
0.0010826
0.00110533
0.00113398
0.0011811
0.00124186
0.00129917
0.00134919
0.00139187
0.00142793
0.00145479
0.00147454
0.00149184
0.00151136
0.00153491
0.00156361
0.00160092
0.0016549
0.00173943
0.00187722
0.00210963
0.00252266
0.000172246
0.000206018
0.000246038
0.00028441
0.000328101
0.000377565
0.000416901
0.0004482
0.000499402
0.000563863
0.000603424
0.000632366
0.000683881
0.000741524
0.00078781
0.000830563
0.00086021
0.000885244
0.000934662
0.0009809
0.0010044
0.00102579
0.00106282
0.00111671
0.00117023
0.00121455
0.00124928
0.00127718
0.00129813
0.00131335
0.00132662
0.00134232
0.00136332
0.00139106
0.00142855
0.00148264
0.00156658
0.00170312
0.0019343
0.00234671
0.000169628
0.000195812
0.000229476
0.00026323
0.000304314
0.000353518
0.000393903
0.000423635
0.000467624
0.000526267
0.000564913
0.000585566
0.000621536
0.000670271
0.000712238
0.000747835
0.000774257
0.000791812
0.00082687
0.000870765
0.000898552
0.000917726
0.000945976
0.00099036
0.00103759
0.00107604
0.00110373
0.0011241
0.00113948
0.00115108
0.00116156
0.00117444
0.001193
0.00121939
0.00125671
0.00131115
0.00139511
0.00153104
0.00176131
0.00217311
0.000163426
0.000184026
0.000212621
0.000241802
0.000278412
0.000325028
0.000365334
0.000393906
0.000431155
0.000482837
0.000520935
0.000537093
0.000558025
0.000593832
0.000629696
0.000659045
0.00068152
0.00069482
0.000717614
0.000754501
0.00078613
0.000808287
0.000831429
0.000864779
0.000902309
0.000933587
0.000954992
0.000969088
0.000979453
0.000987942
0.000996584
0.00100781
0.00102459
0.00104958
0.00108631
0.00114086
0.00122509
0.00136099
0.00159088
0.00200237
0.000153746
0.000169986
0.000194166
0.000219472
0.000250768
0.000292712
0.000331535
0.000358552
0.000389778
0.000433122
0.000469399
0.000484808
0.00049413
0.000515138
0.000542126
0.000565312
0.000582974
0.000593268
0.00060759
0.00063627
0.000668943
0.000695079
0.000716112
0.000739527
0.000765619
0.000788229
0.000803634
0.000812783
0.000818981
0.000824636
0.000831663
0.000841866
0.000857616
0.000881582
0.000917558
0.000971843
0.00105611
0.00119211
0.00142195
0.00183337
0.00014058
0.00015331
0.000173606
0.000195499
0.000221556
0.00025747
0.000293109
0.000318033
0.000343529
0.000377703
0.000408909
0.000424863
0.000428512
0.000435913
0.000451829
0.000468149
0.000480736
0.000488082
0.00049732
0.000518824
0.00054944
0.000577805
0.000598246
0.000614205
0.000629395
0.000642726
0.000652017
0.000657135
0.000660313
0.000663898
0.000669744
0.000679299
0.000694396
0.000717592
0.000752882
0.000806868
0.000891264
0.00102765
0.00125794
0.00166986
0.000123582
0.000133494
0.000150117
0.000168717
0.000190005
0.000219368
0.000250719
0.000272915
0.000293087
0.000318675
0.000341532
0.000355437
0.000357939
0.000356144
0.000360131
0.000367687
0.000374351
0.000377713
0.000382391
0.000397284
0.000423234
0.000450681
0.000470595
0.000482308
0.000489709
0.000495076
0.000498524
0.000500002
0.00050069
0.000502378
0.000506771
0.000515294
0.000529556
0.000551957
0.000586464
0.000639813
0.000723827
0.000860145
0.00109063
0.00150299
0.000103493
0.000110565
0.000123412
0.0001385
0.000155446
0.000178117
0.000203977
0.000222897
0.000237636
0.000255721
0.000271036
0.000280506
0.000283245
0.000278865
0.000275162
0.000275102
0.000276511
0.000276004
0.0002757
0.000282958
0.000301289
0.000324756
0.000343519
0.00035333
0.00035622
0.00035581
0.000354202
0.000352193
0.00035051
0.000350344
0.000353097
0.000360182
0.000373226
0.000394584
0.000428139
0.000480584
0.000563717
0.000699113
0.000928631
0.00134
7.82285e-05
8.34987e-05
9.31964e-05
0.000105063
0.000118193
0.000134694
0.000154063
0.000168581
0.000177305
0.00018734
0.000194912
0.000196333
0.00019398
0.000186095
0.000175039
0.000165104
0.000158746
0.000154147
0.000150683
0.000152957
0.000165047
0.00018402
0.000201385
0.000211058
0.000212594
0.000209029
0.000203509
0.000198036
0.000193828
0.000192149
0.000194375
0.000202003
0.000216617
0.000240373
0.000276841
0.000332411
0.000418674
0.000557144
0.000789686
0.00120413
5.21172e-05
5.1564e-05
5.69979e-05
6.59316e-05
7.65918e-05
8.81226e-05
0.000101232
0.000111523
0.000116559
0.000121758
0.000127149
0.000127227
0.000124634
0.000118813
0.00010872
9.63317e-05
8.50051e-05
7.44224e-05
6.28389e-05
5.20801e-05
4.66019e-05
4.97774e-05
6.03186e-05
7.17751e-05
7.78063e-05
7.63638e-05
6.86964e-05
5.70844e-05
4.37572e-05
3.0735e-05
2.01552e-05
1.41881e-05
1.51706e-05
2.58663e-05
5.03201e-05
9.51893e-05
0.000172282
0.000303316
0.000530531
0.00094236
1.63166e-05
1.81569e-05
2.159e-05
2.59521e-05
3.05456e-05
3.51895e-05
4.04658e-05
4.42194e-05
4.30514e-05
3.94097e-05
3.53369e-05
2.58027e-05
1.25919e-05
-2.40675e-06
-2.05963e-05
-4.00449e-05
-5.71414e-05
-6.96383e-05
-7.74287e-05
-7.97607e-05
-7.59137e-05
-6.78653e-05
-5.99844e-05
-5.64516e-05
-5.87999e-05
-6.56598e-05
-7.41573e-05
-8.16823e-05
-8.64542e-05
-8.74729e-05
-8.39682e-05
-7.50338e-05
-5.92447e-05
-3.42984e-05
3.6919e-06
6.1381e-05
0.000150552
0.000292828
0.000530224
0.000950791
-2.69831e-05
-2.04779e-05
-1.65024e-05
-1.54697e-05
-1.60899e-05
-1.74094e-05
-1.73187e-05
-1.57649e-05
-1.5892e-05
-1.75221e-05
-1.88499e-05
-2.31943e-05
-3.08134e-05
-3.93181e-05
-4.98423e-05
-6.18388e-05
-7.40545e-05
-8.58038e-05
-9.78934e-05
-0.000110765
-0.000124077
-0.000137366
-0.00015092
-0.000165568
-0.000182215
-0.000201408
-0.000223309
-0.000247803
-0.000274872
-0.000304716
-0.000337882
-0.000375295
-0.000418477
-0.000469882
-0.000533601
-0.000616557
-0.000730853
-0.000898485
-0.0011619
-0.00160971
-6.37719e-05
-6.42524e-05
-6.65635e-05
-7.05166e-05
-7.56749e-05
-8.17604e-05
-8.85914e-05
-9.69137e-05
-0.00010778
-0.000121961
-0.000138177
-0.00015683
-0.000178407
-0.000201683
-0.000224706
-0.000245693
-0.000263391
-0.000276022
-0.000282401
-0.000284076
-0.000284314
-0.000285925
-0.000289989
-0.000296335
-0.000304008
-0.00031181
-0.000318428
-0.000322656
-0.0003235
-0.000320331
-0.000312677
-0.000299925
-0.000280844
-0.000253146
-0.000212813
-0.000153001
-6.17906e-05
8.24817e-05
0.000321763
0.000743961
-0.000111034
-0.000111997
-0.000114814
-0.000119012
-0.000124163
-0.000130103
-0.000136492
-0.000143524
-0.000151266
-0.00016005
-0.000168975
-0.000178535
-0.000190106
-0.000203351
-0.000217858
-0.000234015
-0.000251739
-0.000270861
-0.000291178
-0.000312772
-0.000335548
-0.000359508
-0.000384806
-0.000411906
-0.000441291
-0.000473111
-0.000507174
-0.000543196
-0.00058099
-0.000620663
-0.00066268
-0.000707971
-0.000758062
-0.000815412
-0.000884029
-0.000970683
-0.0010872
-0.00125522
-0.00151669
-0.00195957
-0.000161463
-0.000165511
-0.000173684
-0.000185118
-0.000198868
-0.000214504
-0.000231531
-0.000250231
-0.000270732
-0.000293363
-0.000317306
-0.000342104
-0.000367217
-0.000391324
-0.000413151
-0.000430831
-0.000442665
-0.00044963
-0.000454517
-0.000459932
-0.000467052
-0.000475982
-0.000485931
-0.000495679
-0.000504028
-0.00051027
-0.000514076
-0.000515298
-0.000513712
-0.000508933
-0.00050036
-0.000487107
-0.000467761
-0.000439989
-0.000399827
-0.000340495
-0.000250102
-0.000106971
0.000130875
0.000551387
-0.000211383
-0.000214823
-0.000221449
-0.000230441
-0.000240857
-0.000252358
-0.000264272
-0.000276528
-0.000289603
-0.00030351
-0.000317716
-0.000333395
-0.000349598
-0.000366059
-0.000384894
-0.000405215
-0.000425925
-0.000447982
-0.000472006
-0.000497785
-0.000524589
-0.00055261
-0.000582203
-0.000613538
-0.000646245
-0.000680058
-0.000714999
-0.000751313
-0.000789208
-0.000828865
-0.000870619
-0.000915244
-0.000964211
-0.00102002
-0.00108675
-0.00117125
-0.00128538
-0.00145079
-0.00170945
-0.00214935
-0.000275666
-0.00028291
-0.00029634
-0.00031456
-0.000336123
-0.000360214
-0.000385818
-0.000412561
-0.000439532
-0.000466482
-0.000492963
-0.000517169
-0.000538212
-0.00055591
-0.000568665
-0.000577621
-0.000585349
-0.000592982
-0.000600893
-0.000609474
-0.000618907
-0.000628505
-0.000637139
-0.000643977
-0.000648811
-0.000651756
-0.000652819
-0.000651857
-0.00064859
-0.00064267
-0.000633539
-0.000620275
-0.000601321
-0.000574174
-0.000534757
-0.000476274
-0.000386878
-0.000244952
-8.54827e-06
0.000410297
-0.00031744
-0.000320975
-0.000330272
-0.000344364
-0.000361395
-0.000380357
-0.000399788
-0.000418919
-0.000436841
-0.000453253
-0.000468864
-0.000484789
-0.000500201
-0.000516326
-0.000534316
-0.000553353
-0.000573357
-0.000594382
-0.000615719
-0.000636489
-0.000656743
-0.000677392
-0.000699175
-0.000722359
-0.000746827
-0.000772554
-0.000799669
-0.000828384
-0.000858909
-0.000891528
-0.00092675
-0.000965479
-0.00100922
-0.00106043
-0.00112312
-0.0012041
-0.00131526
-0.00147831
-0.00173531
-0.00217436
-0.000398422
-0.000406958
-0.000424964
-0.000450595
-0.000481191
-0.000514874
-0.000549266
-0.000582689
-0.000612777
-0.000638622
-0.000660783
-0.000678108
-0.000690482
-0.000700621
-0.000707874
-0.00071239
-0.000716233
-0.000719288
-0.000720674
-0.000720139
-0.000718666
-0.000716749
-0.000714054
-0.000710014
-0.00070448
-0.000697724
-0.000689926
-0.00068102
-0.000670711
-0.000658628
-0.000644227
-0.000626616
-0.000604249
-0.000574604
-0.000533574
-0.000474353
-0.000385144
-0.000244427
-1.04275e-05
0.000404564
0.0061915
0.00626687
0.00655119
0.00673298
0.0067322
0.00655347
0.00625735
0.00591585
0.00558197
0.00528421
0.00503294
0.00482723
0.0046587
0.00451644
0.00439014
0.00427186
0.00415597
0.00403921
0.0039199
0.00379792
0.00367385
0.00354908
0.00342481
0.00330217
0.00318181
0.00306385
0.00294839
0.00283442
0.00272186
0.00260868
0.00249533
0.0023794
0.00226258
0.00214217
0.00201973
0.0018929
0.00176154
0.00162576
0.00148343
0.00133533
0.0011787
0.00101558
0.000841288
0.000662828
0.000475169
0.000281865
8.81062e-05
-0.000130657
-0.000399855
-0.00069869
-0.00103901
-0.00143182
-0.00184792
-0.00232399
-0.00285632
-0.00343597
-0.0040875
-0.00486794
-0.00573147
-0.00647076
-0.00698443
-0.00724967
-0.00729229
-0.0071215
-0.00663959
-0.0061336
-0.00586108
-0.0056375
-0.00534676
-0.00520396
-0.00525525
-0.00532299
-0.00534109
-0.00536032
-0.00542906
-0.00553361
-0.00562288
-0.00569661
-0.0057609
-0.00579715
-0.00583074
-0.00586604
-0.005878
-0.00589365
-0.00591824
-0.00592443
-0.00591616
-0.00591689
-0.00592828
-0.00594645
-0.00597655
-0.00601277
-0.00605634
-0.00610375
-0.00615804
-0.00622113
-0.00628643
-0.00635877
-0.00642706
-0.00648845
0.00488424
0.00495854
0.00541184
0.00585456
0.00612137
0.00617219
0.00603152
0.00577171
0.00546962
0.00517927
0.00492764
0.00472323
0.00456196
0.00443206
0.00431972
0.00421394
0.00410744
0.00399697
0.00388153
0.00376204
0.00363979
0.00351666
0.0033939
0.00327272
0.00315372
0.00303703
0.00292278
0.00280979
0.00269812
0.00258553
0.00247278
0.00235708
0.0022406
0.00212006
0.00199776
0.00187085
0.00173982
0.00160428
0.00146238
0.00131467
0.00115848
0.000996183
0.000822187
0.000644716
0.00045718
0.000263919
6.98905e-05
-0.000148757
-0.000418945
-0.000715721
-0.00105437
-0.00144599
-0.00185683
-0.00232999
-0.00286094
-0.00343424
-0.00407669
-0.00484951
-0.00570722
-0.00643818
-0.00694793
-0.00721492
-0.00726241
-0.00710015
-0.00662285
-0.00611681
-0.00584833
-0.00563066
-0.00534106
-0.00519821
-0.00524955
-0.00531704
-0.00533554
-0.00535607
-0.00542588
-0.00553088
-0.00562018
-0.00569423
-0.00575911
-0.0057958
-0.00582981
-0.00586555
-0.00587773
-0.00589349
-0.00591824
-0.00592455
-0.00591635
-0.00591706
-0.00592843
-0.00594658
-0.00597663
-0.00601278
-0.0060563
-0.00610371
-0.00615802
-0.00622113
-0.00628642
-0.00635875
-0.00642702
-0.00648842
0.00469513
0.00480054
0.00529553
0.00578299
0.00609065
0.00617444
0.00605453
0.00580179
0.00549583
0.0051955
0.00493216
0.0047172
0.00454866
0.00441537
0.00430258
0.0041977
0.00409204
0.00398158
0.00386511
0.00374381
0.00361936
0.00349407
0.00336939
0.00324665
0.0031264
0.00300888
0.00289399
0.00278066
0.00266855
0.00255562
0.00244234
0.00232626
0.00220934
0.00208858
0.00196613
0.00183852
0.00170722
0.00157086
0.00142889
0.00128102
0.00112521
0.000963479
0.000790368
0.000613433
0.000425865
0.000231729
3.19234e-05
-0.000188812
-0.000457565
-0.000752776
-0.00108418
-0.0014734
-0.00187878
-0.00234329
-0.00287067
-0.00343448
-0.00406163
-0.00480956
-0.00562942
-0.00633411
-0.00683337
-0.007105
-0.00717081
-0.00703266
-0.00658553
-0.00610487
-0.00584819
-0.00563228
-0.00534536
-0.00520375
-0.00525411
-0.00532089
-0.00533831
-0.00535668
-0.00542472
-0.00552923
-0.00561856
-0.00569242
-0.00575702
-0.00579356
-0.0058276
-0.00586351
-0.00587597
-0.00589203
-0.00591699
-0.00592354
-0.00591562
-0.00591663
-0.00592819
-0.00594642
-0.00597659
-0.00601284
-0.00605644
-0.00610383
-0.00615808
-0.00622116
-0.00628646
-0.00635883
-0.00642719
-0.00648848
0.00410562
0.00418976
0.00467885
0.00518647
0.00553734
0.005683
0.00563403
0.0054492
0.00520005
0.00494323
0.00471158
0.00451895
0.00436681
0.00424763
0.00414897
0.00405882
0.00396785
0.00387099
0.0037662
0.00365429
0.00353713
0.00341752
0.00329758
0.00317898
0.00306265
0.00294872
0.00283736
0.00272715
0.00261803
0.00250736
0.0023961
0.00228124
0.00216553
0.00204543
0.00192379
0.00179685
0.00166645
0.00153099
0.0013899
0.00124341
0.001088
0.000928154
0.000755493
0.000579587
0.00039219
0.000196574
-7.47671e-06
-0.000228517
-0.000495015
-0.000789414
-0.00111356
-0.00150044
-0.00190134
-0.00235432
-0.00287731
-0.00343233
-0.00403772
-0.00475444
-0.00554317
-0.00622081
-0.00670655
-0.00698254
-0.0070645
-0.00695272
-0.00653844
-0.00607712
-0.00582601
-0.00561953
-0.00534322
-0.00520402
-0.00524927
-0.00531147
-0.00532959
-0.00535056
-0.005419
-0.00552253
-0.00561091
-0.00568468
-0.00575005
-0.00578736
-0.00582196
-0.00585877
-0.00587227
-0.00588897
-0.00591437
-0.00592152
-0.00591433
-0.00591587
-0.00592778
-0.00594621
-0.00597644
-0.00601272
-0.00605629
-0.00610377
-0.00615811
-0.00622121
-0.00628646
-0.00635883
-0.0064272
-0.00648854
0.0038431
0.00394591
0.00446015
0.00499584
0.00537559
0.00554969
0.00552687
0.0053639
0.00513126
0.00488574
0.00466115
0.00447248
0.0043225
0.00420513
0.00410891
0.00402203
0.00393481
0.0038415
0.00373948
0.00362915
0.00351243
0.00339238
0.00327167
0.00315232
0.00303545
0.00292119
0.00280957
0.00269917
0.00258976
0.00247876
0.00236688
0.00225127
0.00213454
0.00201362
0.00189131
0.00176392
0.00163329
0.00149757
0.00135632
0.00120989
0.0010545
0.000895002
0.000722476
0.000546936
0.000358876
0.000162268
-4.44205e-05
-0.000267909
-0.000532399
-0.000826485
-0.00114482
-0.00152689
-0.00192453
-0.00236538
-0.00288157
-0.00342708
-0.00400937
-0.00469695
-0.00545202
-0.00609865
-0.00656764
-0.00684477
-0.00694179
-0.00685567
-0.00647724
-0.00604644
-0.0058089
-0.00561144
-0.00534456
-0.00520733
-0.00524821
-0.00530829
-0.00532778
-0.00534891
-0.00541521
-0.00551666
-0.00560393
-0.00567727
-0.00574289
-0.00578054
-0.00581535
-0.00585272
-0.00586713
-0.00588442
-0.00591022
-0.00591807
-0.00591181
-0.00591422
-0.00592673
-0.00594552
-0.005976
-0.0060125
-0.00605627
-0.00610386
-0.00615819
-0.00622133
-0.00628662
-0.00635905
-0.00642762
-0.00648868
0.00352028
0.0036145
0.00412416
0.00466051
0.00504572
0.00522957
0.00521979
0.00507189
0.00485552
0.00462691
0.00441951
0.00424789
0.00411447
0.00401274
0.00393102
0.00385734
0.0037821
0.00369957
0.00360731
0.00350569
0.0033969
0.00328404
0.00317013
0.00305711
0.00294638
0.00283761
0.00273108
0.00262489
0.00251935
0.00241158
0.00230274
0.00218968
0.0020751
0.00195621
0.00183549
0.0017102
0.00158086
0.00144719
0.00130678
0.00116255
0.00100797
0.000850167
0.000679138
0.000504114
0.000317056
0.000120171
-8.84428e-05
-0.000313973
-0.000574359
-0.000867477
-0.00118021
-0.00155492
-0.00194969
-0.00237839
-0.00288331
-0.00341985
-0.00398083
-0.00463591
-0.00535673
-0.00597404
-0.00642609
-0.00670521
-0.00681772
-0.00675841
-0.00641929
-0.00601588
-0.00578749
-0.00559843
-0.0053431
-0.00520932
-0.00524496
-0.0052996
-0.00531893
-0.005342
-0.00540809
-0.00550807
-0.00559405
-0.00566679
-0.00573293
-0.00577139
-0.00580665
-0.00584496
-0.00586077
-0.00587897
-0.00590532
-0.00591408
-0.00590895
-0.0059123
-0.0059255
-0.00594474
-0.00597544
-0.00601205
-0.00605592
-0.00610368
-0.00615822
-0.00622141
-0.00628664
-0.00635903
-0.0064276
-0.00648881
0.00329405
0.00338809
0.00389662
0.00442848
0.00480763
0.00498605
0.00497433
0.00483062
0.00462547
0.00441434
0.00422916
0.00408221
0.00397337
0.00389348
0.00382923
0.00376832
0.00370191
0.00362544
0.00353764
0.00343989
0.00333511
0.00322663
0.00311731
0.00300876
0.00290197
0.0027964
0.00269206
0.00258722
0.00248223
0.00237473
0.0022659
0.00215294
0.00203821
0.00191925
0.00179827
0.001673
0.00154357
0.00141009
0.0012695
0.00112557
0.000971048
0.000813617
0.000642987
0.000467685
0.00028102
8.26724e-05
-0.000127254
-0.000354761
-0.000612124
-0.000904147
-0.00121323
-0.00157866
-0.00197148
-0.00238877
-0.00287925
-0.00340792
-0.0039478
-0.00456911
-0.0052567
-0.00584617
-0.00628137
-0.00656052
-0.00668679
-0.00665276
-0.00635002
-0.00597573
-0.00576109
-0.00558353
-0.00534054
-0.00520928
-0.00523948
-0.00529141
-0.00531314
-0.0053382
-0.00540275
-0.0055003
-0.00558477
-0.00565696
-0.00572367
-0.00576287
-0.00579846
-0.00583751
-0.00585443
-0.00587334
-0.00590014
-0.00590973
-0.00590576
-0.00591015
-0.00592408
-0.00594376
-0.00597475
-0.00601162
-0.00605576
-0.00610372
-0.00615827
-0.00622156
-0.00628688
-0.00635935
-0.00642814
-0.00648899
0.00316163
0.00327757
0.00380161
0.0043268
0.00467979
0.00481769
0.00476231
0.00458571
0.00436578
0.00415665
0.0039844
0.00385673
0.00376887
0.00370759
0.00365753
0.00360626
0.00354615
0.00347415
0.00339048
0.00329766
0.00319921
0.00309825
0.00299721
0.00289691
0.00279778
0.00269884
0.00259998
0.00249965
0.00239829
0.00229414
0.00218812
0.00207832
0.00196611
0.0018502
0.00173131
0.00160877
0.00148112
0.00135004
0.00121116
0.00106899
0.000916544
0.000760072
0.000591994
0.000416967
0.000232017
3.35786e-05
-0.000176125
-0.000404408
-0.000658665
-0.000946903
-0.0012526
-0.00160749
-0.00199603
-0.00240312
-0.00287594
-0.00339445
-0.00391541
-0.00450113
-0.00515526
-0.00571915
-0.00613624
-0.00641398
-0.00655332
-0.00654391
-0.00627987
-0.00593648
-0.00573523
-0.00556797
-0.005337
-0.00520918
-0.00523562
-0.00528372
-0.00530545
-0.00533121
-0.00539483
-0.00549099
-0.00557433
-0.00564574
-0.00571265
-0.00575252
-0.0057885
-0.00582848
-0.00584696
-0.00586686
-0.00589426
-0.00590488
-0.00590222
-0.00590772
-0.00592246
-0.0059427
-0.005974
-0.00601106
-0.00605534
-0.00610354
-0.00615829
-0.00622162
-0.00628686
-0.00635928
-0.00642806
-0.00648915
0.00297511
0.00302796
0.003478
0.00393824
0.00425021
0.00437932
0.00434825
0.00421888
0.00405496
0.00389951
0.00377251
0.00367843
0.00361103
0.0035587
0.00351044
0.00345886
0.0033999
0.00333225
0.00325647
0.00317433
0.00308791
0.00299898
0.00290878
0.00281761
0.00272557
0.00263199
0.00253697
0.00243961
0.00234048
0.00223833
0.00213397
0.00202593
0.0019152
0.00180082
0.00168304
0.00156153
0.00143465
0.00130433
0.00116635
0.0010246
0.000873247
0.000716828
0.000550238
0.00037487
0.000190807
-7.85667e-06
-0.000218136
-0.000446615
-0.00069881
-0.000982603
-0.0012865
-0.00163098
-0.00201316
-0.002413
-0.00286622
-0.00337248
-0.00387728
-0.00442745
-0.00504764
-0.00558754
-0.00598732
-0.00626188
-0.00641311
-0.00642805
-0.00620115
-0.00588839
-0.00570216
-0.00554753
-0.0053305
-0.00520635
-0.00522806
-0.00527259
-0.00529624
-0.00532443
-0.00538725
-0.0054813
-0.00556298
-0.00563378
-0.00570133
-0.00574229
-0.00577879
-0.00581967
-0.00583951
-0.0058603
-0.00588825
-0.00589984
-0.0058985
-0.00590519
-0.00592078
-0.00594153
-0.00597317
-0.0060105
-0.00605508
-0.00610348
-0.00615832
-0.00622179
-0.00628719
-0.00635968
-0.00642873
-0.00648937
0.00485505
0.00477412
0.00428563
0.00377934