/*--------------------------------*- C++ -*----------------------------------*\
| =========                 |                                                 |
| \\      /  F ield         | OpenFOAM: The Open Source CFD Toolbox           |
|  \\    /   O peration     | Version:  2312                                  |
|   \\  /    A nd           | Website:  www.openfoam.com                      |
|    \\/     M anipulation  |                                                 |
\*---------------------------------------------------------------------------*/
FoamFile
{
    version     2.0;
    format      ascii;
    arch        "LSB;label=32;scalar=64";
    class       surfaceScalarField;
    location    "0.4";
    object      phi;
}
// * * * * * * * * * * * * * * * * * * * * * * * * * * * * * * * * * * * * * //

dimensions      [0 3 -1 0 0 0 0];

oriented        oriented;

internalField   nonuniform List<scalar> 
11020
(
3.87734e-06
-6.58914e-08
3.87856e-06
3.58274e-08
3.8788e-06
-4.33183e-08
3.87706e-06
6.17742e-08
3.8757e-06
-1.53285e-08
3.87641e-06
1.83423e-08
3.877e-06
-3.76194e-08
3.87834e-06
1.67956e-09
3.87821e-06
-2.0379e-08
3.87807e-06
1.49571e-08
3.87662e-06
2.78177e-09
3.87657e-06
1.51933e-08
3.87556e-06
-1.95653e-09
3.87534e-06
6.80117e-09
3.87444e-06
-2.25445e-09
3.87438e-06
3.63628e-09
3.87368e-06
-1.64555e-09
3.87356e-06
3.06015e-09
3.87297e-06
-3.42948e-10
3.8728e-06
3.20821e-09
3.87216e-06
9.05233e-10
3.87175e-06
3.91644e-09
3.87095e-06
2.22187e-09
3.87028e-06
4.74592e-09
3.86933e-06
3.57427e-09
3.8685e-06
5.39055e-09
3.86749e-06
4.4469e-09
3.86657e-06
5.5951e-09
3.86552e-06
4.76714e-09
3.8645e-06
5.462e-09
3.86332e-06
4.82787e-09
3.86205e-06
5.42983e-09
3.86056e-06
5.24757e-09
3.85891e-06
6.12467e-09
3.85705e-06
6.43343e-09
3.85504e-06
7.43865e-09
3.8528e-06
7.96497e-09
3.85035e-06
9.1561e-09
3.84761e-06
1.02369e-08
1.19511e-08
3.84462e-06
4.18281e-06
-6.28417e-08
4.18837e-06
3.02711e-08
4.18489e-06
-3.9841e-08
4.1878e-06
5.88658e-08
4.18336e-06
-1.08884e-08
4.18705e-06
1.46456e-08
4.18423e-06
-3.47986e-08
4.188e-06
-2.08798e-09
4.18549e-06
-1.78726e-08
4.18749e-06
1.29646e-08
4.18429e-06
5.97405e-09
4.18648e-06
1.30107e-08
4.18399e-06
5.33869e-10
4.1847e-06
6.09114e-09
4.18259e-06
-1.46215e-10
4.18318e-06
3.04408e-09
4.18166e-06
-1.20838e-10
4.18217e-06
2.54854e-09
4.1811e-06
7.20379e-10
4.18148e-06
2.82837e-09
4.1804e-06
1.98488e-09
4.18041e-06
3.91018e-09
4.17915e-06
3.48164e-09
4.17874e-06
5.15317e-09
4.17741e-06
4.91206e-09
4.17671e-06
6.08222e-09
4.17539e-06
5.77037e-09
4.17451e-06
6.47751e-09
4.17314e-06
6.13543e-09
4.172e-06
6.60107e-09
4.17044e-06
6.38437e-09
4.16899e-06
6.88661e-09
4.16728e-06
6.95892e-09
4.16578e-06
7.61667e-09
4.16427e-06
7.95163e-09
4.163e-06
8.70826e-09
4.16176e-06
9.20351e-09
4.16086e-06
1.00575e-08
4.16029e-06
1.08044e-08
1.18202e-08
4.16042e-06
4.5165e-06
-5.92814e-08
4.52058e-06
2.61904e-08
4.51682e-06
-3.60816e-08
4.52064e-06
5.50484e-08
4.5174e-06
-7.64796e-09
4.5201e-06
1.19505e-08
4.51651e-06
-3.12137e-08
4.51889e-06
-4.47005e-09
4.51652e-06
-1.54965e-08
4.51827e-06
1.1208e-08
4.51605e-06
8.19642e-09
4.5181e-06
1.0957e-08
4.51631e-06
2.33057e-09
4.51651e-06
5.88963e-09
4.51462e-06
1.73861e-09
4.5146e-06
3.07314e-09
4.51309e-06
1.38508e-09
4.51329e-06
2.35164e-09
4.51233e-06
1.67558e-09
4.51257e-06
2.59081e-09
4.51163e-06
2.92301e-09
4.51148e-06
4.05817e-09
4.51034e-06
4.62321e-09
4.50985e-06
5.64667e-09
4.50865e-06
6.10922e-09
4.5079e-06
6.83116e-09
4.50669e-06
6.98126e-09
4.5058e-06
7.36398e-09
4.50459e-06
7.34671e-09
4.50345e-06
7.74075e-09
4.50194e-06
7.89624e-09
4.50043e-06
8.40258e-09
4.49875e-06
8.63884e-09
4.49727e-06
9.08908e-09
4.49587e-06
9.35053e-09
4.49472e-06
9.86255e-09
4.49364e-06
1.02862e-08
4.4928e-06
1.08912e-08
4.49223e-06
1.13825e-08
1.19108e-08
4.49213e-06
4.87789e-06
-5.62228e-08
4.88033e-06
2.37493e-08
4.87686e-06
-3.26081e-08
4.88099e-06
5.09161e-08
4.87882e-06
-5.48273e-09
4.88088e-06
9.89443e-09
4.87691e-06
-2.72455e-08
4.87801e-06
-5.56749e-09
4.87549e-06
-1.29732e-08
4.87719e-06
9.50438e-09
4.87577e-06
9.61667e-09
4.87721e-06
9.51635e-09
4.87606e-06
3.47532e-09
4.87597e-06
5.98057e-09
4.87471e-06
2.99791e-09
4.87407e-06
3.72169e-09
4.87289e-06
2.56507e-09
4.87241e-06
2.82776e-09
4.87164e-06
2.44906e-09
4.87133e-06
2.89808e-09
4.87059e-06
3.66035e-09
4.86997e-06
4.68159e-09
4.86902e-06
5.57138e-09
4.86825e-06
6.42087e-09
4.86732e-06
7.03422e-09
4.86643e-06
7.71849e-09
4.86539e-06
8.02908e-09
4.86426e-06
8.49254e-09
4.86295e-06
8.65914e-09
4.86158e-06
9.10579e-09
4.86019e-06
9.28395e-09
4.85885e-06
9.7437e-09
4.85758e-06
9.90716e-09
4.85639e-06
1.02814e-08
4.8553e-06
1.04361e-08
4.85438e-06
1.07871e-08
4.85367e-06
1.10009e-08
4.85322e-06
1.1336e-08
4.85308e-06
1.15261e-08
1.17127e-08
4.85328e-06
5.26765e-06
-5.3229e-08
5.26971e-06
2.16971e-08
5.26616e-06
-2.90655e-08
5.27066e-06
4.64141e-08
5.26864e-06
-3.45798e-09
5.27069e-06
7.8441e-09
5.26652e-06
-2.30785e-08
5.26722e-06
-6.26575e-09
5.26431e-06
-1.00604e-08
5.26611e-06
7.70018e-09
5.26505e-06
1.06827e-08
5.26606e-06
8.5074e-09
5.26491e-06
4.6244e-09
5.265e-06
5.88282e-09
5.26397e-06
4.03194e-09
5.26337e-06
4.3252e-09
5.26211e-06
3.81754e-09
5.26137e-06
3.57414e-09
5.26043e-06
3.38863e-09
5.25987e-06
3.45179e-09
5.25904e-06
4.49283e-09
5.25829e-06
5.43103e-09
5.25729e-06
6.57297e-09
5.25644e-06
7.26892e-09
5.25551e-06
7.97026e-09
5.25463e-06
8.59945e-09
5.25363e-06
9.02648e-09
5.25257e-06
9.54728e-09
5.25132e-06
9.90966e-09
5.24993e-06
1.04948e-08
5.24852e-06
1.07024e-08
5.24721e-06
1.10465e-08
5.24605e-06
1.10747e-08
5.245e-06
1.13236e-08
5.24407e-06
1.13684e-08
5.24329e-06
1.15657e-08
5.24268e-06
1.16152e-08
5.24228e-06
1.17307e-08
5.24211e-06
1.16951e-08
1.16631e-08
5.24216e-06
5.68832e-06
-5.00945e-08
5.69045e-06
1.95742e-08
5.68676e-06
-2.53738e-08
5.69144e-06
4.17334e-08
5.68934e-06
-1.36528e-09
5.69135e-06
5.83963e-09
5.68727e-06
-1.90014e-08
5.68776e-06
-6.75352e-09
5.68487e-06
-7.16677e-09
5.6863e-06
6.26549e-09
5.68582e-06
1.11595e-08
5.68616e-06
8.17181e-09
5.68544e-06
5.34536e-09
5.68521e-06
6.10719e-09
5.68437e-06
4.87726e-09
5.68374e-06
4.95512e-09
5.68266e-06
4.90076e-09
5.68174e-06
4.49019e-09
5.6807e-06
4.42959e-09
5.67986e-06
4.29494e-09
5.67893e-06
5.42267e-09
5.67806e-06
6.29597e-09
5.67708e-06
7.55525e-09
5.67615e-06
8.20064e-09
5.67518e-06
8.93682e-09
5.67418e-06
9.59987e-09
5.67303e-06
1.01772e-08
5.67175e-06
1.08255e-08
5.67041e-06
1.12489e-08
5.66914e-06
1.17613e-08
5.66796e-06
1.18842e-08
5.66685e-06
1.21568e-08
5.66578e-06
1.21501e-08
5.66479e-06
1.23085e-08
5.66392e-06
1.2245e-08
5.66321e-06
1.22688e-08
5.6627e-06
1.21308e-08
5.66242e-06
1.20072e-08
5.66236e-06
1.17517e-08
1.1468e-08
5.66256e-06
6.14255e-06
-4.67731e-08
6.14484e-06
1.72788e-08
6.14096e-06
-2.14918e-08
6.14578e-06
3.69162e-08
6.14356e-06
8.55681e-10
6.14557e-06
3.83195e-09
6.14151e-06
-1.49429e-08
6.14194e-06
-7.18643e-09
6.13912e-06
-4.34524e-09
6.14022e-06
5.16112e-09
6.14002e-06
1.13621e-08
6.14013e-06
8.06132e-09
6.13935e-06
6.12671e-09
6.13906e-06
6.39228e-09
6.13819e-06
5.75346e-09
6.13758e-06
5.56667e-09
6.13659e-06
5.88445e-09
6.1357e-06
5.38725e-09
6.13454e-06
5.58244e-09
6.13354e-06
5.29807e-09
6.13246e-06
6.50795e-09
6.13151e-06
7.24011e-09
6.13051e-06
8.55292e-09
6.12953e-06
9.18815e-09
6.12847e-06
9.99443e-09
6.12734e-06
1.07293e-08
6.12606e-06
1.14573e-08
6.12474e-06
1.21395e-08
6.12344e-06
1.2549e-08
6.1223e-06
1.29054e-08
6.12118e-06
1.30017e-08
6.12015e-06
1.31862e-08
6.11914e-06
1.31626e-08
6.11821e-06
1.3236e-08
6.11736e-06
1.31015e-08
6.11666e-06
1.29669e-08
6.11612e-06
1.26744e-08
6.11579e-06
1.23305e-08
6.11568e-06
1.18588e-08
1.12251e-08
6.11593e-06
6.63306e-06
-4.32745e-08
6.63552e-06
1.48182e-08
6.63153e-06
-1.7494e-08
6.63632e-06
3.21245e-08
6.63412e-06
3.04928e-09
6.63594e-06
2.01442e-09
6.63212e-06
-1.11252e-08
6.63225e-06
-7.31365e-09
6.62981e-06
-1.905e-09
6.6304e-06
4.56859e-09
6.63045e-06
1.13127e-08
6.63048e-06
8.03479e-09
6.62946e-06
7.14287e-09
6.6292e-06
6.65796e-09
6.62823e-06
6.71974e-09
6.62767e-06
6.12532e-09
6.62662e-06
6.93723e-09
6.62584e-06
6.17036e-09
6.62456e-06
6.85929e-09
6.62352e-06
6.33567e-09
6.62228e-06
7.74913e-09
6.6213e-06
8.22079e-09
6.62021e-06
9.64292e-09
6.61922e-06
1.01829e-08
6.61793e-06
1.12767e-08
6.61668e-06
1.19825e-08
6.6153e-06
1.28391e-08
6.61411e-06
1.33253e-08
6.61293e-06
1.37292e-08
6.61191e-06
1.3932e-08
6.61083e-06
1.40784e-08
6.60986e-06
1.41552e-08
6.60884e-06
1.41814e-08
6.60795e-06
1.41248e-08
6.60708e-06
1.39756e-08
6.60637e-06
1.36775e-08
6.60576e-06
1.3281e-08
6.60535e-06
1.27395e-08
6.60494e-06
1.22759e-08
1.14632e-08
6.6047e-06
7.16276e-06
-3.96054e-08
7.16538e-06
1.2197e-08
7.16128e-06
-1.33887e-08
7.16602e-06
2.73811e-08
7.16384e-06
5.23087e-09
7.1655e-06
3.50047e-10
7.1619e-06
-7.52431e-09
7.16173e-06
-7.14214e-09
7.15972e-06
1.10348e-10
7.15986e-06
4.42177e-09
7.15994e-06
1.12359e-08
7.15991e-06
8.05963e-09
7.15896e-06
8.09385e-09
7.15852e-06
7.09864e-09
7.15756e-06
7.6869e-09
7.15689e-06
6.78942e-09
7.15584e-06
7.98522e-09
7.155e-06
7.01722e-09
7.15373e-06
8.12448e-09
7.15261e-06
7.46186e-09
7.15132e-06
9.03918e-09
7.1502e-06
9.34072e-09
7.14888e-06
1.09598e-08
7.14759e-06
1.14745e-08
7.14612e-06
1.27385e-08
7.14488e-06
1.32233e-08
7.14374e-06
1.39869e-08
7.14282e-06
1.42448e-08
7.14186e-06
1.46817e-08
7.14096e-06
1.48328e-08
7.13995e-06
1.5089e-08
7.13895e-06
1.51548e-08
7.13784e-06
1.52945e-08
7.13674e-06
1.522e-08
7.13561e-06
1.51146e-08
7.13451e-06
1.47684e-08
7.13344e-06
1.43545e-08
7.13258e-06
1.36046e-08
7.13244e-06
1.24092e-08
1.0798e-08
7.13311e-06
7.7348e-06
-3.57987e-08
7.73752e-06
9.47125e-09
7.73343e-06
-9.29868e-09
7.73792e-06
2.28947e-08
7.73601e-06
7.14083e-09
7.73713e-06
-7.73245e-10
7.73437e-06
-4.76412e-09
7.73297e-06
-5.74231e-09
7.73222e-06
8.62062e-10
7.73153e-06
5.1147e-09
7.73192e-06
1.08455e-08
7.73145e-06
8.52847e-09
7.73088e-06
8.66448e-09
7.73e-06
7.9751e-09
7.72929e-06
8.39628e-09
7.72829e-06
7.79528e-09
7.72745e-06
8.82235e-09
7.72631e-06
8.16087e-09
7.72524e-06
9.18846e-09
7.72386e-06
8.84328e-09
7.72266e-06
1.02444e-08
7.72121e-06
1.07846e-08
7.71981e-06
1.23598e-08
7.71833e-06
1.29527e-08
7.71706e-06
1.40075e-08
7.71588e-06
1.44128e-08
7.71486e-06
1.50036e-08
7.71386e-06
1.52412e-08
7.713e-06
1.55434e-08
7.71224e-06
1.55893e-08
7.71172e-06
1.56131e-08
7.71151e-06
1.53611e-08
7.7117e-06
1.51044e-08
7.71221e-06
1.47148e-08
7.713e-06
1.43201e-08
7.71392e-06
1.38489e-08
7.71492e-06
1.33594e-08
7.71576e-06
1.276e-08
7.71593e-06
1.22374e-08
1.13302e-08
7.7154e-06
8.35255e-06
-3.18843e-08
8.35534e-06
6.68017e-09
8.35132e-06
-5.27836e-09
8.35546e-06
1.87482e-08
8.35391e-06
8.69561e-09
8.35436e-06
-1.22373e-09
8.35275e-06
-3.15662e-09
8.35042e-06
-3.41109e-09
8.34988e-06
1.39899e-09
8.34893e-06
6.06564e-09
8.34939e-06
1.03912e-08
8.34866e-06
9.25326e-09
8.34826e-06
9.07025e-09
8.34724e-06
8.99446e-09
8.34659e-06
9.0411e-09
8.34542e-06
8.97156e-09
8.34462e-06
9.61548e-09
8.34332e-06
9.46135e-09
8.34225e-06
1.0258e-08
8.34071e-06
1.03816e-08
8.33932e-06
1.16373e-08
8.33768e-06
1.24221e-08
8.3363e-06
1.37433e-08
8.33494e-06
1.43136e-08
8.33389e-06
1.50606e-08
8.33278e-06
1.55194e-08
8.33188e-06
1.59021e-08
8.33099e-06
1.61324e-08
8.33034e-06
1.61971e-08
8.32979e-06
1.6139e-08
8.32963e-06
1.57719e-08
8.32961e-06
1.53808e-08
8.32984e-06
1.48678e-08
8.33012e-06
1.44401e-08
8.33046e-06
1.39836e-08
8.3308e-06
1.3502e-08
8.33122e-06
1.2942e-08
8.33164e-06
1.23445e-08
8.33222e-06
1.16539e-08
1.08323e-08
8.33272e-06
9.01969e-06
-2.79265e-08
9.02244e-06
3.92547e-09
9.01868e-06
-1.51476e-09
9.0222e-06
1.52328e-08
9.02131e-06
9.57798e-09
9.02052e-06
-4.2989e-10
9.01965e-06
-2.29125e-09
9.01777e-06
-1.52384e-09
9.01676e-06
2.40857e-09
9.01606e-06
6.76194e-09
9.01617e-06
1.02834e-08
9.01557e-06
9.85412e-09
9.01491e-06
9.73104e-09
9.01397e-06
9.9314e-09
9.01312e-06
9.8922e-09
9.01202e-06
1.00711e-08
9.01101e-06
1.0623e-08
9.00975e-06
1.07231e-08
9.00842e-06
1.15867e-08
9.00685e-06
1.19528e-08
9.00526e-06
1.32321e-08
9.00375e-06
1.39262e-08
9.0025e-06
1.49991e-08
9.00125e-06
1.55561e-08
9.00022e-06
1.60903e-08
8.99923e-06
1.65093e-08
8.99845e-06
1.66811e-08
8.99782e-06
1.6765e-08
8.99754e-06
1.64772e-08
8.99744e-06
1.62364e-08
8.99748e-06
1.57405e-08
8.99753e-06
1.53288e-08
8.99755e-06
1.48455e-08
8.99757e-06
1.44157e-08
8.99768e-06
1.38795e-08
8.99783e-06
1.33487e-08
8.99801e-06
1.27671e-08
8.99815e-06
1.21978e-08
8.99824e-06
1.15717e-08
1.10244e-08
8.99804e-06
9.74015e-06
-2.39788e-08
9.74279e-06
1.291e-09
9.73949e-06
1.78682e-09
9.74216e-06
1.25594e-08
9.74232e-06
9.42259e-09
9.74075e-06
1.13228e-09
9.73966e-06
-1.2008e-09
9.73816e-06
-2.10237e-11
9.73704e-06
3.52652e-09
9.7363e-06
7.50253e-09
9.7362e-06
1.03829e-08
9.73558e-06
1.04802e-08
9.73482e-06
1.04905e-08
9.7339e-06
1.0848e-08
9.73294e-06
1.08536e-08
9.7318e-06
1.12067e-08
9.73061e-06
1.18147e-08
9.72925e-06
1.2081e-08
9.72769e-06
1.31495e-08
9.72612e-06
1.35277e-08
9.72463e-06
1.47183e-08
9.72323e-06
1.53236e-08
9.72212e-06
1.61155e-08
9.72107e-06
1.66063e-08
9.72031e-06
1.68482e-08
9.71968e-06
1.71355e-08
9.71929e-06
1.70719e-08
9.719e-06
1.70577e-08
9.7187e-06
1.67771e-08
9.71844e-06
1.64993e-08
9.71822e-06
1.59605e-08
9.71802e-06
1.55257e-08
9.71791e-06
1.49584e-08
9.71786e-06
1.44579e-08
9.71786e-06
1.3885e-08
9.71785e-06
1.33622e-08
9.71784e-06
1.27694e-08
9.71782e-06
1.22219e-08
9.71778e-06
1.1607e-08
1.10157e-08
9.71779e-06
1.05183e-05
-2.01541e-08
1.05206e-05
-1.06149e-09
1.05188e-05
3.61396e-09
1.05198e-05
1.15428e-08
1.05202e-05
9.04351e-09
1.05187e-05
2.62235e-09
1.05172e-05
2.60417e-10
1.05159e-05
1.34234e-09
1.05149e-05
4.52613e-09
1.05141e-05
8.28969e-09
1.05138e-05
1.06719e-08
1.05131e-05
1.11414e-08
1.05123e-05
1.1333e-08
1.05113e-05
1.18369e-08
1.05102e-05
1.1914e-08
1.0509e-05
1.24266e-08
1.05076e-05
1.31809e-08
1.05062e-05
1.35055e-08
1.05047e-05
1.47005e-08
1.05031e-05
1.50579e-08
1.05019e-05
1.59759e-08
1.05006e-05
1.6626e-08
1.04995e-05
1.71612e-08
1.04985e-05
1.76418e-08
1.04976e-05
1.77352e-08
1.04968e-05
1.79329e-08
1.04962e-05
1.76702e-08
1.04959e-05
1.73723e-08
1.04958e-05
1.68296e-08
1.04959e-05
1.64637e-08
1.04959e-05
1.59574e-08
1.04958e-05
1.5581e-08
1.04957e-05
1.50609e-08
1.04956e-05
1.45505e-08
1.04956e-05
1.39604e-08
1.04955e-05
1.33977e-08
1.04955e-05
1.28035e-08
1.04955e-05
1.22016e-08
1.04955e-05
1.15822e-08
1.09845e-08
1.04956e-05
1.13585e-05
-1.65035e-08
1.13605e-05
-3.06965e-09
1.13595e-05
4.67179e-09
1.13597e-05
1.1272e-08
1.13599e-05
8.89665e-09
1.13588e-05
3.73678e-09
1.13571e-05
1.88652e-09
1.13557e-05
2.75667e-09
1.13547e-05
5.54833e-09
1.1354e-05
9.02292e-09
1.13535e-05
1.11523e-08
1.13528e-05
1.1839e-08
1.13518e-05
1.22982e-08
1.13508e-05
1.28587e-08
1.13496e-05
1.31216e-08
1.13483e-05
1.37322e-08
1.13468e-05
1.46332e-08
1.13454e-05
1.49553e-08
1.1344e-05
1.60985e-08
1.13425e-05
1.65316e-08
1.13414e-05
1.71324e-08
1.13402e-05
1.77962e-08
1.13392e-05
1.81623e-08
1.13384e-05
1.84709e-08
1.13377e-05
1.83646e-08
1.13373e-05
1.83336e-08
1.1337e-05
1.7975e-08
1.13368e-05
1.76442e-08
1.13365e-05
1.71282e-08
1.13362e-05
1.67322e-08
1.1336e-05
1.61975e-08
1.13358e-05
1.5732e-08
1.13357e-05
1.51704e-08
1.13356e-05
1.4625e-08
1.13356e-05
1.40172e-08
1.13355e-05
1.3414e-08
1.13356e-05
1.27849e-08
1.13356e-05
1.21554e-08
1.13357e-05
1.15286e-08
1.08744e-08
1.13358e-05
1.2266e-05
-1.31195e-08
1.22675e-05
-4.63776e-09
1.22669e-05
5.26678e-09
1.2267e-05
1.12375e-08
1.22668e-05
9.00973e-09
1.22658e-05
4.79302e-09
1.22642e-05
3.43836e-09
1.22628e-05
4.2211e-09
1.22617e-05
6.67171e-09
1.22609e-05
9.80759e-09
1.22603e-05
1.17074e-08
1.22596e-05
1.25799e-08
1.22585e-05
1.3345e-08
1.22574e-05
1.39828e-08
1.22561e-05
1.44506e-08
1.22547e-05
1.50725e-08
1.22533e-05
1.60421e-08
1.22519e-05
1.64181e-08
1.22506e-05
1.73531e-08
1.22492e-05
1.79009e-08
1.22481e-05
1.82545e-08
1.22472e-05
1.87162e-08
1.22464e-05
1.89921e-08
1.22458e-05
1.9082e-08
1.22452e-05
1.89114e-08
1.22448e-05
1.87402e-08
1.22444e-05
1.83913e-08
1.2244e-05
1.80038e-08
1.22437e-05
1.74566e-08
1.22434e-05
1.69812e-08
1.22432e-05
1.64151e-08
1.22431e-05
1.58886e-08
1.2243e-05
1.52727e-08
1.22429e-05
1.46818e-08
1.22429e-05
1.40403e-08
1.22429e-05
1.34039e-08
1.22429e-05
1.27487e-08
1.2243e-05
1.21001e-08
1.22431e-05
1.14568e-08
1.08524e-08
1.22431e-05
1.32459e-05
-1.0064e-08
1.32469e-05
-5.70099e-09
1.32467e-05
5.49791e-09
1.32467e-05
1.12487e-08
1.32464e-05
9.3224e-09
1.32452e-05
5.94282e-09
1.32437e-05
4.95411e-09
1.32423e-05
5.65189e-09
1.32411e-05
7.83683e-09
1.32402e-05
1.07249e-08
1.32395e-05
1.23766e-08
1.32388e-05
1.33591e-08
1.32377e-05
1.44451e-08
1.32365e-05
1.5167e-08
1.32351e-05
1.58297e-08
1.32337e-05
1.64904e-08
1.32324e-05
1.73356e-08
1.32309e-05
1.78586e-08
1.32298e-05
1.85308e-08
1.32286e-05
1.9059e-08
1.32275e-05
1.93589e-08
1.32267e-05
1.95336e-08
1.32259e-05
1.97761e-08
1.32253e-05
1.97097e-08
1.32247e-05
1.94431e-08
1.32243e-05
1.91415e-08
1.3224e-05
1.8701e-08
1.32237e-05
1.83027e-08
1.32235e-05
1.77229e-08
1.32232e-05
1.72085e-08
1.32231e-05
1.65712e-08
1.3223e-05
1.60055e-08
1.32229e-05
1.53445e-08
1.32229e-05
1.4717e-08
1.32229e-05
1.40329e-08
1.32229e-05
1.3374e-08
1.32229e-05
1.26943e-08
1.3223e-05
1.20368e-08
1.32231e-05
1.13828e-08
1.07276e-08
1.32232e-05
1.43041e-05
-7.42826e-09
1.43044e-05
-6.03651e-09
1.43046e-05
5.31866e-09
1.43047e-05
1.1178e-08
1.43042e-05
9.79826e-09
1.4303e-05
7.14933e-09
1.43014e-05
6.52156e-09
1.43e-05
7.10052e-09
1.42988e-05
8.99177e-09
1.42978e-05
1.17264e-08
1.4297e-05
1.32233e-08
1.42961e-05
1.41947e-08
1.4295e-05
1.55547e-08
1.42938e-05
1.63944e-08
1.42924e-05
1.71966e-08
1.4291e-05
1.79387e-08
1.42898e-05
1.85525e-08
1.42885e-05
1.91627e-08
1.42873e-05
1.9723e-08
1.42863e-05
2.00224e-08
1.42853e-05
2.03823e-08
1.42845e-05
2.03053e-08
1.42839e-05
2.04198e-08
1.42833e-05
2.02789e-08
1.42828e-05
1.99118e-08
1.42824e-05
1.9561e-08
1.42821e-05
1.90035e-08
1.42818e-05
1.8583e-08
1.42816e-05
1.79251e-08
1.42815e-05
1.73833e-08
1.42813e-05
1.66871e-08
1.42813e-05
1.60845e-08
1.42812e-05
1.53725e-08
1.42812e-05
1.47157e-08
1.42813e-05
1.39971e-08
1.42813e-05
1.33169e-08
1.42814e-05
1.26154e-08
1.42815e-05
1.19437e-08
1.42816e-05
1.12752e-08
1.06141e-08
1.42817e-05
1.54468e-05
-5.25925e-09
1.54458e-05
-5.01651e-09
1.54468e-05
4.3725e-09
1.54471e-05
1.07829e-08
1.54466e-05
1.03757e-08
1.54453e-05
8.42406e-09
1.54437e-05
8.11577e-09
1.54422e-05
8.62832e-09
1.5441e-05
1.01851e-08
1.544e-05
1.27471e-08
1.54389e-05
1.42355e-08
1.5438e-05
1.51342e-08
1.54369e-05
1.6692e-08
1.54356e-05
1.76305e-08
1.54344e-05
1.84282e-08
1.5433e-05
1.93477e-08
1.54318e-05
1.97666e-08
1.54307e-05
2.02928e-08
1.54294e-05
2.09302e-08
1.54286e-05
2.09054e-08
1.54277e-05
2.12402e-08
1.54269e-05
2.10739e-08
1.54264e-05
2.09806e-08
1.54258e-05
2.08163e-08
1.54255e-05
2.02984e-08
1.54251e-05
1.99187e-08
1.54248e-05
1.92468e-08
1.54246e-05
1.87922e-08
1.54245e-05
1.80714e-08
1.54244e-05
1.74985e-08
1.54243e-05
1.67551e-08
1.54243e-05
1.6109e-08
1.54243e-05
1.53622e-08
1.54243e-05
1.4668e-08
1.54244e-05
1.39293e-08
1.54245e-05
1.32226e-08
1.54246e-05
1.2511e-08
1.54247e-05
1.18222e-08
1.54249e-05
1.11511e-08
1.04813e-08
1.5425e-05
1.66807e-05
-3.54609e-09
1.66793e-05
-3.55534e-09
1.66801e-05
3.5816e-09
1.66806e-05
1.02085e-08
1.66801e-05
1.09101e-08
1.66788e-05
9.72074e-09
1.66773e-05
9.67515e-09
1.66757e-05
1.02229e-08
1.66743e-05
1.15183e-08
1.66732e-05
1.38447e-08
1.66721e-05
1.53216e-08
1.66711e-05
1.61694e-08
1.667e-05
1.7817e-08
1.66687e-05
1.89055e-08
1.66676e-05
1.95711e-08
1.66663e-05
2.05783e-08
1.66651e-05
2.09948e-08
1.66641e-05
2.12597e-08
1.6663e-05
2.20271e-08
1.66621e-05
2.18234e-08
1.66614e-05
2.19282e-08
1.66607e-05
2.17841e-08
1.66603e-05
2.14531e-08
1.66598e-05
2.12689e-08
1.66595e-05
2.06149e-08
1.66592e-05
2.02005e-08
1.6659e-05
1.94446e-08
1.66589e-05
1.89269e-08
1.66588e-05
1.81694e-08
1.66587e-05
1.75381e-08
1.66587e-05
1.67729e-08
1.66588e-05
1.60729e-08
1.66588e-05
1.53131e-08
1.66589e-05
1.45756e-08
1.6659e-05
1.38301e-08
1.66591e-05
1.30933e-08
1.66593e-05
1.23817e-08
1.66594e-05
1.16749e-08
1.66595e-05
1.10076e-08
1.03279e-08
1.66597e-05
1.8013e-05
-2.14928e-09
1.80116e-05
-2.15837e-09
1.80116e-05
3.57934e-09
1.80123e-05
9.46758e-09
1.80121e-05
1.11583e-08
1.80109e-05
1.09341e-08
1.80093e-05
1.12418e-08
1.80077e-05
1.18308e-08
1.80063e-05
1.29683e-08
1.8005e-05
1.50778e-08
1.80038e-05
1.65019e-08
1.80028e-05
1.72349e-08
1.80017e-05
1.88844e-08
1.80005e-05
2.01462e-08
1.79993e-05
2.07026e-08
1.79983e-05
2.16337e-08
1.79971e-05
2.2169e-08
1.79962e-05
2.21477e-08
1.79954e-05
2.28977e-08
1.79944e-05
2.27565e-08
1.79938e-05
2.25289e-08
1.79932e-05
2.23799e-08
1.79928e-05
2.18554e-08
1.79925e-05
2.16071e-08
1.79922e-05
2.08668e-08
1.79921e-05
2.03767e-08
1.79919e-05
1.95898e-08
1.79919e-05
1.89812e-08
1.79918e-05
1.82118e-08
1.79918e-05
1.75053e-08
1.79919e-05
1.67355e-08
1.7992e-05
1.5977e-08
1.79921e-05
1.52177e-08
1.79922e-05
1.44403e-08
1.79923e-05
1.3696e-08
1.79925e-05
1.29325e-08
1.79927e-05
1.22233e-08
1.79928e-05
1.15022e-08
1.7993e-05
1.08399e-08
1.01544e-08
1.79932e-05
1.94516e-05
-1.06245e-09
1.94502e-05
-7.89749e-10
1.94497e-05
4.06316e-09
1.94503e-05
8.89315e-09
1.94503e-05
1.11998e-08
1.94492e-05
1.19641e-08
1.94477e-05
1.27431e-08
1.94462e-05
1.34199e-08
1.94447e-05
1.44452e-08
1.94433e-05
1.64166e-08
1.94421e-05
1.77918e-08
1.94409e-05
1.83819e-08
1.94399e-05
1.98413e-08
1.94388e-05
2.12759e-08
1.94377e-05
2.18532e-08
1.94367e-05
2.25645e-08
1.94357e-05
2.3214e-08
1.94348e-05
2.30258e-08
1.94342e-05
2.35287e-08
1.94334e-05
2.35738e-08
1.94328e-05
2.30839e-08
1.94324e-05
2.28401e-08
1.9432e-05
2.21788e-08
1.94318e-05
2.18183e-08
1.94316e-05
2.10533e-08
1.94316e-05
2.04547e-08
1.94315e-05
1.96679e-08
1.94315e-05
1.89628e-08
1.94315e-05
1.81934e-08
1.94316e-05
1.7413e-08
1.94317e-05
1.66411e-08
1.94318e-05
1.58314e-08
1.9432e-05
1.50707e-08
1.94322e-05
1.42646e-08
1.94323e-05
1.35207e-08
1.94325e-05
1.27421e-08
1.94327e-05
1.20329e-08
1.94329e-05
1.13057e-08
1.94331e-05
1.06458e-08
9.96173e-09
1.94333e-05
2.1005e-05
-2.22741e-10
2.10036e-05
5.35006e-10
2.1003e-05
4.68917e-09
2.10032e-05
8.74787e-09
2.10031e-05
1.12433e-08
2.10023e-05
1.27513e-08
2.1001e-05
1.4056e-08
2.09995e-05
1.49532e-08
2.0998e-05
1.58922e-08
2.09967e-05
1.77611e-08
2.09953e-05
1.91708e-08
2.09941e-05
1.96384e-08
2.09931e-05
2.07892e-08
2.09922e-05
2.22032e-08
2.09911e-05
2.29317e-08
2.09902e-05
2.34443e-08
2.09894e-05
2.40701e-08
2.09885e-05
2.38901e-08
2.0988e-05
2.40103e-08
2.09874e-05
2.41621e-08
2.09869e-05
2.35882e-08
2.09866e-05
2.31797e-08
2.09863e-05
2.24204e-08
2.09863e-05
2.19003e-08
2.09862e-05
2.1145e-08
2.09862e-05
2.04421e-08
2.09862e-05
1.9661e-08
2.09863e-05
1.88736e-08
2.09864e-05
1.8101e-08
2.09865e-05
1.72668e-08
2.09867e-05
1.64842e-08
2.09869e-05
1.56408e-08
2.09871e-05
1.48697e-08
2.09873e-05
1.405e-08
2.09875e-05
1.3301e-08
2.09877e-05
1.25207e-08
2.09879e-05
1.18088e-08
2.09882e-05
1.10853e-08
2.09884e-05
1.04252e-08
9.74936e-09
2.09886e-05
2.26823e-05
4.29865e-10
2.26811e-05
1.72846e-09
2.26803e-05
5.43699e-09
2.26801e-05
8.9699e-09
2.26799e-05
1.14101e-08
2.26793e-05
1.34195e-08
2.26782e-05
1.51239e-08
2.26768e-05
1.63459e-08
2.26754e-05
1.72856e-08
2.26742e-05
1.90059e-08
2.26728e-05
2.05288e-08
2.26715e-05
2.09749e-08
2.26705e-05
2.17946e-08
2.26697e-05
2.30079e-08
2.26688e-05
2.3841e-08
2.2668e-05
2.42502e-08
2.26673e-05
2.47355e-08
2.26665e-05
2.46421e-08
2.26661e-05
2.4437e-08
2.26658e-05
2.45138e-08
2.26654e-05
2.39526e-08
2.26652e-05
2.33982e-08
2.2665e-05
2.25652e-08
2.26651e-05
2.18793e-08
2.26651e-05
2.11273e-08
2.26652e-05
2.03486e-08
2.26653e-05
1.95656e-08
2.26654e-05
1.87208e-08
2.26656e-05
1.79308e-08
2.26658e-05
1.70657e-08
2.2666e-05
1.62643e-08
2.26662e-05
1.54053e-08
2.26665e-05
1.46173e-08
2.26667e-05
1.3796e-08
2.2667e-05
1.30386e-08
2.26673e-05
1.22661e-08
2.26675e-05
1.15511e-08
2.26678e-05
1.08383e-08
2.2668e-05
1.01783e-08
9.51583e-09
2.26682e-05
2.44934e-05
9.53166e-10
2.44924e-05
2.75781e-09
2.44916e-05
6.23635e-09
2.44911e-05
9.47613e-09
2.44907e-05
1.17818e-08
2.44901e-05
1.40438e-08
2.44892e-05
1.60556e-08
2.4488e-05
1.75082e-08
2.44867e-05
1.85596e-08
2.44856e-05
2.01146e-08
2.44844e-05
2.17254e-08
2.44831e-05
2.23231e-08
2.4482e-05
2.28504e-08
2.44813e-05
2.37678e-08
2.44805e-05
2.45613e-08
2.44799e-05
2.49284e-08
2.44794e-05
2.52271e-08
2.44788e-05
2.51813e-08
2.44785e-05
2.47939e-08
2.44783e-05
2.46579e-08
2.44782e-05
2.41228e-08
2.44781e-05
2.34611e-08
2.4478e-05
2.26078e-08
2.44781e-05
2.17906e-08
2.44782e-05
2.10159e-08
2.44784e-05
2.01816e-08
2.44786e-05
1.938e-08
2.44788e-05
1.85041e-08
2.44791e-05
1.76859e-08
2.44793e-05
1.68066e-08
2.44796e-05
1.59825e-08
2.44799e-05
1.5122e-08
2.44802e-05
1.43174e-08
2.44805e-05
1.35017e-08
2.44808e-05
1.27371e-08
2.44811e-05
1.19768e-08
2.44814e-05
1.12619e-08
2.44816e-05
1.05637e-08
2.44819e-05
9.91567e-09
9.25569e-09
2.44822e-05
2.64491e-05
1.36725e-09
2.64483e-05
3.64611e-09
2.64475e-05
7.02295e-09
2.64468e-05
1.01562e-08
2.64462e-05
1.23958e-08
2.64455e-05
1.46985e-08
2.64447e-05
1.69077e-08
2.64437e-05
1.84889e-08
2.64426e-05
1.96494e-08
2.64417e-05
2.10646e-08
2.64407e-05
2.26641e-08
2.64395e-05
2.35191e-08
2.64384e-05
2.39248e-08
2.64377e-05
2.44995e-08
2.64371e-05
2.51349e-08
2.64366e-05
2.54246e-08
2.64363e-05
2.55425e-08
2.6436e-05
2.54611e-08
2.64358e-05
2.50001e-08
2.64359e-05
2.46341e-08
2.64359e-05
2.40828e-08
2.6436e-05
2.3383e-08
2.64361e-05
2.25395e-08
2.64362e-05
2.1642e-08
2.64364e-05
2.08092e-08
2.64367e-05
1.99356e-08
2.64369e-05
1.91045e-08
2.64372e-05
1.82129e-08
2.64375e-05
1.73644e-08
2.64379e-05
1.64814e-08
2.64382e-05
1.56395e-08
2.64385e-05
1.47853e-08
2.64389e-05
1.39712e-08
2.64392e-05
1.31654e-08
2.64396e-05
1.23988e-08
2.64399e-05
1.16525e-08
2.64402e-05
1.09427e-08
2.64405e-05
1.02599e-08
2.64408e-05
9.612e-09
8.98173e-09
2.64411e-05
2.8561e-05
1.69152e-09
2.85602e-05
4.42625e-09
2.85595e-05
7.76528e-09
2.85587e-05
1.08962e-08
2.85579e-05
1.31979e-08
2.85572e-05
1.54427e-08
2.85564e-05
1.77121e-08
2.85555e-05
1.93641e-08
2.85546e-05
2.05429e-08
2.85538e-05
2.18958e-08
2.85531e-05
2.33233e-08
2.85522e-05
2.44011e-08
2.85513e-05
2.48845e-08
2.85506e-05
2.51701e-08
2.85502e-05
2.55586e-08
2.85499e-05
2.57254e-08
2.85497e-05
2.56993e-08
2.85497e-05
2.55013e-08
2.85497e-05
2.50089e-08
2.85498e-05
2.44783e-08
2.855e-05
2.38686e-08
2.85503e-05
2.31395e-08
2.85505e-05
2.23087e-08
2.85508e-05
2.13923e-08
2.85511e-05
2.05107e-08
2.85514e-05
1.9608e-08
2.85518e-05
1.87389e-08
2.85521e-05
1.78413e-08
2.85525e-05
1.69685e-08
2.85529e-05
1.6088e-08
2.85533e-05
1.52352e-08
2.85537e-05
1.43916e-08
2.85541e-05
1.35774e-08
2.85545e-05
1.27858e-08
2.85549e-05
1.20262e-08
2.85552e-05
1.12967e-08
2.85556e-05
1.0599e-08
2.85559e-05
9.93391e-09
2.85562e-05
9.29995e-09
8.71337e-09
2.85565e-05
3.08414e-05
1.94456e-09
3.08408e-05
5.08847e-09
3.08401e-05
8.46497e-09
3.08393e-05
1.16531e-08
3.08384e-05
1.4083e-08
3.08376e-05
1.62588e-08
3.08368e-05
1.84742e-08
3.0836e-05
2.02035e-08
3.08352e-05
2.13564e-08
3.08345e-05
2.26221e-08
3.08339e-05
2.38427e-08
3.08335e-05
2.48392e-08
3.08329e-05
2.54917e-08
3.08324e-05
2.5645e-08
3.08322e-05
2.57965e-08
3.08321e-05
2.5796e-08
3.08322e-05
2.56418e-08
3.08323e-05
2.53257e-08
3.08326e-05
2.47871e-08
3.08329e-05
2.417e-08
3.08332e-05
2.34986e-08
3.08336e-05
2.27545e-08
3.0834e-05
2.19247e-08
3.08344e-05
2.10187e-08
3.08348e-05
2.01041e-08
3.08352e-05
1.91837e-08
3.08357e-05
1.828e-08
3.08361e-05
1.73775e-08
3.08366e-05
1.64885e-08
3.08371e-05
1.56129e-08
3.08376e-05
1.47578e-08
3.0838e-05
1.39274e-08
3.08385e-05
1.31221e-08
3.08389e-05
1.23479e-08
3.08394e-05
1.16026e-08
3.08398e-05
1.08937e-08
3.08401e-05
1.02255e-08
3.08405e-05
9.57974e-09
3.08408e-05
8.96356e-09
8.39335e-09
3.08411e-05
3.33039e-05
2.10684e-09
3.33034e-05
5.67492e-09
3.33027e-05
9.11562e-09
3.3302e-05
1.24051e-08
3.33011e-05
1.49357e-08
3.33003e-05
1.70833e-08
3.32996e-05
1.91437e-08
3.32989e-05
2.09219e-08
3.32982e-05
2.20401e-08
3.32976e-05
2.32304e-08
3.32971e-05
2.43357e-08
3.32968e-05
2.50986e-08
3.32966e-05
2.57718e-08
3.32963e-05
2.59127e-08
3.32962e-05
2.5874e-08
3.32963e-05
2.57113e-08
3.32965e-05
2.54006e-08
3.32969e-05
2.49754e-08
3.32973e-05
2.43411e-08
3.32979e-05
2.365e-08
3.32985e-05
2.28996e-08
3.32991e-05
2.21458e-08
3.32997e-05
2.13266e-08
3.33002e-05
2.04596e-08
3.33008e-05
1.95476e-08
3.33013e-05
1.86304e-08
3.33019e-05
1.77129e-08
3.33025e-05
1.68118e-08
3.3303e-05
1.59221e-08
3.33036e-05
1.50522e-08
3.33042e-05
1.41847e-08
3.33047e-05
1.33721e-08
3.33053e-05
1.25889e-08
3.33058e-05
1.18401e-08
3.33062e-05
1.11212e-08
3.33067e-05
1.04365e-08
3.33071e-05
9.78261e-09
3.33076e-05
9.16234e-09
3.3308e-05
8.57269e-09
8.00597e-09
3.33083e-05
3.5963e-05
2.23556e-09
3.59625e-05
6.20679e-09
3.59618e-05
9.74544e-09
3.59612e-05
1.30853e-08
3.59604e-05
1.56894e-08
3.59596e-05
1.78441e-08
3.5959e-05
1.97485e-08
3.59585e-05
2.14973e-08
3.59579e-05
2.26105e-08
3.59575e-05
2.36164e-08
3.59572e-05
2.46115e-08
3.59572e-05
2.51477e-08
3.59573e-05
2.56494e-08
3.59574e-05
2.57741e-08
3.59577e-05
2.56129e-08
3.59581e-05
2.53374e-08
3.59586e-05
2.48791e-08
3.59592e-05
2.43849e-08
3.59598e-05
2.36948e-08
3.59605e-05
2.29796e-08
3.59612e-05
2.21956e-08
3.59619e-05
2.14842e-08
3.59625e-05
2.06542e-08
3.59632e-05
1.97661e-08
3.5964e-05
1.88029e-08
3.59647e-05
1.78779e-08
3.59655e-05
1.69664e-08
3.59662e-05
1.60846e-08
3.59669e-05
1.52626e-08
3.59675e-05
1.44372e-08
3.5968e-05
1.36327e-08
3.59686e-05
1.2854e-08
3.5969e-05
1.21053e-08
3.59695e-05
1.13853e-08
3.59699e-05
1.0697e-08
3.59703e-05
1.00382e-08
3.59707e-05
9.41123e-09
3.5971e-05
8.81354e-09
3.59714e-05
8.24692e-09
7.71717e-09
3.59717e-05
3.88348e-05
1.92081e-09
3.88333e-05
7.67791e-09
3.88334e-05
9.67358e-09
3.88325e-05
1.39811e-08
3.88325e-05
1.56534e-08
3.88316e-05
1.87724e-08
3.88314e-05
1.99132e-08
3.88307e-05
2.22427e-08
3.88304e-05
2.28588e-08
3.88299e-05
2.41843e-08
3.88298e-05
2.46517e-08
3.88295e-05
2.54503e-08
3.88297e-05
2.54658e-08
3.88297e-05
2.58137e-08
3.88299e-05
2.53551e-08
3.88301e-05
2.51901e-08
3.88305e-05
2.44131e-08
3.8831e-05
2.39124e-08