/*--------------------------------*- C++ -*----------------------------------*\
| =========                 |                                                 |
| \\      /  F ield         | OpenFOAM: The Open Source CFD Toolbox           |
|  \\    /   O peration     | Version:  2312                                  |
|   \\  /    A nd           | Website:  www.openfoam.com                      |
|    \\/     M anipulation  |                                                 |
\*---------------------------------------------------------------------------*/
FoamFile
{
    version     2.0;
    format      ascii;
    arch        "LSB;label=32;scalar=64";
    class       volVectorField;
    location    "0.4";
    object      U;
}
// * * * * * * * * * * * * * * * * * * * * * * * * * * * * * * * * * * * * * //

dimensions      [0 1 -1 0 0 0 0];

internalField   nonuniform List<vector> 
5600
(
(0.971549 -0.000840781 0)
(1.02753 0.000518618 0)
(0.974823 -0.000650767 0)
(1.02512 0.000980032 0)
(0.976486 -0.000294437 0)
(1.02205 0.000363444 0)
(0.979015 -0.000761071 0)
(1.02029 6.80556e-05 0)
(0.981685 -0.00049194 0)
(1.01834 0.00038501 0)
(0.983397 3.67595e-05 0)
(1.01592 0.000458564 0)
(0.984977 -9.66993e-05 0)
(1.01384 0.000232915 0)
(0.986359 -0.000118398 0)
(1.01193 0.000148033 0)
(0.987704 -0.000102416 0)
(1.01029 0.000142548 0)
(0.988823 -4.6901e-05 0)
(1.00877 0.000170773 0)
(0.989889 1.6828e-05 0)
(1.00731 0.000229848 0)
(0.990652 0.00010164 0)
(1.00587 0.000311859 0)
(0.991212 0.000218733 0)
(1.00446 0.000407496 0)
(0.991573 0.000332769 0)
(1.0031 0.000487494 0)
(0.991797 0.000419275 0)
(1.00183 0.000541316 0)
(0.991891 0.000481895 0)
(1.0006 0.000596533 0)
(0.991853 0.000586038 0)
(0.999415 0.000757286 0)
(0.99172 0.000838788 0)
(0.998318 0.00107464 0)
(0.991561 0.00123039 0)
(0.997319 0.00155757 0)
(0.991437 0.00189087 0)
(0.996773 0.00244458 0)
(0.987218 -0.000854276 0)
(1.0111 0.000473448 0)
(0.990126 -0.000647565 0)
(1.00926 0.00101905 0)
(0.991762 -0.000237795 0)
(1.00704 0.000325109 0)
(0.993486 -0.000771017 0)
(1.00578 1.70488e-06 0)
(0.995189 -0.000473929 0)
(1.00469 0.00037883 0)
(0.996009 0.000121764 0)
(1.00333 0.000446716 0)
(0.996901 -2.63757e-05 0)
(1.00225 0.000238525 0)
(0.997156 -4.91189e-05 0)
(1.00128 0.000144987 0)
(0.997404 -4.20803e-05 0)
(1.00059 0.000144781 0)
(0.997556 1.27174e-05 0)
(1.00004 0.000182611 0)
(0.997754 9.23714e-05 0)
(0.999487 0.000274153 0)
(0.997719 0.000208616 0)
(0.998865 0.000399416 0)
(0.997519 0.000361439 0)
(0.998188 0.000534585 0)
(0.99716 0.000508599 0)
(0.99752 0.000654366 0)
(0.996732 0.000634485 0)
(0.996879 0.000761338 0)
(0.996259 0.000761073 0)
(0.996267 0.000904095 0)
(0.995785 0.00097086 0)
(0.995712 0.00119488 0)
(0.995331 0.00136902 0)
(0.995209 0.00167773 0)
(0.99495 0.00194295 0)
(0.994901 0.00236397 0)
(0.994929 0.00281889 0)
(0.995274 0.00346632 0)
(0.996908 -0.000767126 0)
(1.00202 0.000369294 0)
(0.997606 -0.000550852 0)
(1.0014 0.000896076 0)
(0.998393 -0.000143152 0)
(1.00091 0.000229809 0)
(0.998621 -0.0006537 0)
(1.00026 -9.60665e-05 0)
(0.998826 -0.000379414 0)
(0.999973 0.000290653 0)
(0.998874 0.000213095 0)
(0.999676 0.000335714 0)
(0.999168 6.4003e-05 0)
(0.999408 0.000190482 0)
(0.99881 4.1254e-05 0)
(0.998944 0.000105021 0)
(0.998462 3.47574e-05 0)
(0.998597 9.90951e-05 0)
(0.998204 6.47701e-05 0)
(0.998374 0.00013154 0)
(0.998111 0.000150224 0)
(0.998096 0.000234435 0)
(0.99784 0.000285059 0)
(0.997708 0.000384811 0)
(0.997495 0.000449433 0)
(0.997252 0.000545969 0)
(0.997046 0.000600465 0)
(0.996767 0.000686096 0)
(0.996573 0.000736678 0)
(0.99629 0.000829903 0)
(0.996091 0.000906863 0)
(0.995822 0.00104356 0)
(0.995628 0.00116324 0)
(0.995386 0.00133126 0)
(0.995195 0.00148449 0)
(0.994987 0.00169799 0)
(0.994851 0.00191834 0)
(0.994777 0.00220446 0)
(0.99486 0.00249895 0)
(0.995187 0.00283408 0)
(0.999603 -0.000758194 0)
(0.999831 0.00035683 0)
(0.999172 -0.00053029 0)
(0.999708 0.000884969 0)
(0.999745 -0.000122237 0)
(0.999942 0.000219331 0)
(0.999504 -0.000616394 0)
(0.99933 -0.000103625 0)
(0.999062 -0.000354532 0)
(0.999062 0.000281462 0)
(0.999052 0.000245411 0)
(0.999114 0.000317063 0)
(0.999122 8.93363e-05 0)
(0.999024 0.000219055 0)
(0.998815 9.32375e-05 0)
(0.998635 0.0001448 0)
(0.998417 8.84319e-05 0)
(0.998242 0.000124132 0)
(0.998046 0.000107525 0)
(0.997994 0.000155348 0)
(0.997869 0.000200099 0)
(0.99773 0.000289439 0)
(0.997527 0.000361031 0)
(0.997359 0.000465311 0)
(0.997181 0.000545302 0)
(0.996974 0.000653826 0)
(0.996797 0.000726619 0)
(0.996565 0.000827451 0)
(0.996401 0.000901231 0)
(0.996174 0.00102095 0)
(0.996013 0.00112407 0)
(0.995798 0.00128612 0)
(0.995628 0.00142352 0)
(0.995425 0.00160801 0)
(0.99527 0.00177612 0)
(0.995122 0.00200603 0)
(0.995054 0.0022413 0)
(0.99506 0.00253799 0)
(0.995224 0.00283856 0)
(0.995618 0.00317622 0)
(1.00004 -0.00069271 0)
(0.999533 0.000305282 0)
(0.999353 -0.000450596 0)
(0.999509 0.000770158 0)
(0.999927 -7.00208e-05 0)
(0.999867 0.00015556 0)
(0.999629 -0.000497862 0)
(0.999283 -0.000142018 0)
(0.999034 -0.000264107 0)
(0.998901 0.000209297 0)
(0.999054 0.000290098 0)
(0.999078 0.000255438 0)
(0.998983 0.000137117 0)
(0.998941 0.000201545 0)
(0.998805 0.000134124 0)
(0.998608 0.000162165 0)
(0.99848 0.000140989 0)
(0.998228 0.000147046 0)
(0.998036 0.000147216 0)
(0.997931 0.0001684 0)
(0.997781 0.000241922 0)
(0.997646 0.000320644 0)
(0.997421 0.000422485 0)
(0.997274 0.000509744 0)
(0.997086 0.000607344 0)
(0.996913 0.000711987 0)
(0.996748 0.000805355 0)
(0.996553 0.000917373 0)
(0.996409 0.00101902 0)
(0.996219 0.00116784 0)
(0.996084 0.00129028 0)
(0.995897 0.00145183 0)
(0.995753 0.0015814 0)
(0.995576 0.00175702 0)
(0.995456 0.00191381 0)
(0.995339 0.0021184 0)
(0.995308 0.0023091 0)
(0.995334 0.00253545 0)
(0.995515 0.00274307 0)
(0.995897 0.00296566 0)
(1.00009 -0.000677193 0)
(0.999516 0.000296559 0)
(0.999382 -0.000419738 0)
(0.99951 0.000731052 0)
(0.999937 -4.86358e-05 0)
(0.999845 0.000138666 0)
(0.999634 -0.000439829 0)
(0.999322 -0.000136085 0)
(0.999055 -0.000210867 0)
(0.998892 0.000182755 0)
(0.99906 0.000306417 0)
(0.999102 0.000252118 0)
(0.998932 0.000163259 0)
(0.99889 0.000212274 0)
(0.998801 0.000171337 0)
(0.998603 0.000190542 0)
(0.998534 0.000196311 0)
(0.998291 0.000193902 0)
(0.998085 0.000202072 0)
(0.997958 0.000215217 0)
(0.997771 0.000297471 0)
(0.997638 0.000382574 0)
(0.997415 0.000498111 0)
(0.997284 0.000587795 0)
(0.997101 0.000693543 0)
(0.996937 0.000804022 0)
(0.996786 0.000917092 0)
(0.996613 0.00104478 0)
(0.99649 0.00117295 0)
(0.996323 0.00133587 0)
(0.996199 0.00146994 0)
(0.996023 0.00163098 0)
(0.995898 0.00176359 0)
(0.99574 0.0019339 0)
(0.995648 0.00208768 0)
(0.995554 0.00227503 0)
(0.995551 0.00244593 0)
(0.9956 0.00263698 0)
(0.995809 0.00281035 0)
(0.99621 0.00299246 0)
(1.00009 -0.00061506 0)
(0.999528 0.000248814 0)
(0.999404 -0.000343043 0)
(0.999525 0.000624737 0)
(0.999922 1.53634e-06 0)
(0.999826 8.21656e-05 0)
(0.999622 -0.000336705 0)
(0.999349 -0.000162122 0)
(0.999092 -0.000129427 0)
(0.998921 0.000140534 0)
(0.999061 0.000315259 0)
(0.999109 0.000240609 0)
(0.998934 0.00018336 0)
(0.99887 0.0002163 0)
(0.99879 0.000199321 0)
(0.9986 0.00021496 0)
(0.998548 0.000238394 0)
(0.998342 0.000236175 0)
(0.998135 0.000256424 0)
(0.997998 0.000264518 0)
(0.997796 0.000355937 0)
(0.997649 0.000435728 0)
(0.997443 0.000561641 0)
(0.997318 0.000655616 0)
(0.997149 0.000769096 0)
(0.996993 0.000893207 0)
(0.996854 0.00102248 0)
(0.996705 0.0011747 0)
(0.996593 0.001317 0)
(0.996441 0.00148096 0)
(0.996321 0.00161293 0)
(0.996158 0.00177312 0)
(0.996045 0.0019079 0)
(0.995906 0.00207481 0)
(0.995833 0.00222279 0)
(0.995754 0.0023937 0)
(0.995764 0.00254441 0)
(0.995817 0.00270189 0)
(0.99603 0.00283559 0)
(0.99643 0.00296176 0)
(1.00008 -0.000588446 0)
(0.999546 0.000230064 0)
(0.99943 -0.000299572 0)
(0.999546 0.000568403 0)
(0.999901 3.01277e-05 0)
(0.999813 6.06033e-05 0)
(0.999609 -0.000268793 0)
(0.999372 -0.000156277 0)
(0.999125 -7.48235e-05 0)
(0.998961 0.000123168 0)
(0.99907 0.000314437 0)
(0.999107 0.00024501 0)
(0.998948 0.000214113 0)
(0.998871 0.000230441 0)
(0.998785 0.000235857 0)
(0.998606 0.000241473 0)
(0.998552 0.000281412 0)
(0.998371 0.000278454 0)
(0.998175 0.000318845 0)
(0.998036 0.000325636 0)
(0.997837 0.000426499 0)
(0.997682 0.000503339 0)
(0.997487 0.000635039 0)
(0.997369 0.000733111 0)
(0.997213 0.000863182 0)
(0.99707 0.000997284 0)
(0.996946 0.00115237 0)
(0.996816 0.00131206 0)
(0.996709 0.00146349 0)
(0.996568 0.00161976 0)
(0.996454 0.00176257 0)
(0.996305 0.00192212 0)
(0.996204 0.00206926 0)
(0.99608 0.0022268 0)
(0.996017 0.00236668 0)
(0.995947 0.00250294 0)
(0.99596 0.00261681 0)
(0.996007 0.00271555 0)
(0.996207 0.00279473 0)
(0.996581 0.00286286 0)
(1.00007 -0.000527386 0)
(0.999565 0.000182336 0)
(0.999456 -0.000225539 0)
(0.999566 0.000474623 0)
(0.99988 7.77166e-05 0)
(0.9998 1.50339e-05 0)
(0.999603 -0.000185484 0)
(0.999391 -0.000165917 0)
(0.999158 -1.31719e-05 0)
(0.999002 0.000112404 0)
(0.999085 0.000314185 0)
(0.999105 0.000237391 0)
(0.99896 0.000250681 0)
(0.998882 0.000236996 0)
(0.99879 0.000274704 0)
(0.998617 0.000259511 0)
(0.99856 0.000331912 0)
(0.99839 0.000310799 0)
(0.998203 0.000389052 0)
(0.998071 0.000379875 0)
(0.997883 0.000506946 0)
(0.997729 0.000566322 0)
(0.997545 0.000720102 0)
(0.997437 0.000811818 0)
(0.997295 0.000976454 0)
(0.997169 0.00110546 0)
(0.997055 0.00128092 0)
(0.996933 0.00141919 0)
(0.996831 0.00158301 0)
(0.996702 0.00172297 0)
(0.9966 0.00189088 0)
(0.996466 0.00205259 0)
(0.996372 0.00224165 0)
(0.996247 0.00241904 0)
(0.996173 0.00260626 0)
(0.996082 0.00275926 0)
(0.996066 0.00290432 0)
(0.996085 0.00299154 0)
(0.996273 0.00302461 0)
(0.996689 0.00289972 0)
(1.00007 -0.000491241 0)
(0.999582 0.000154994 0)
(0.999488 -0.0001738 0)
(0.999584 0.000409434 0)
(0.999864 0.000108177 0)
(0.999785 -2.84245e-06 0)
(0.999601 -0.000117509 0)
(0.99941 -0.000151196 0)
(0.999194 1.93769e-05 0)
(0.999035 0.000117304 0)
(0.999108 0.000309681 0)
(0.999106 0.000245412 0)
(0.998975 0.000276397 0)
(0.998891 0.000260531 0)
(0.998801 0.00030814 0)
(0.998633 0.000294677 0)
(0.998577 0.000375062 0)
(0.998409 0.000357875 0)
(0.998232 0.000450095 0)
(0.998106 0.000450475 0)
(0.997937 0.000581364 0)
(0.997789 0.000648528 0)
(0.99762 0.000814624 0)
(0.99752 0.000917583 0)
(0.997396 0.00109529 0)
(0.997273 0.00122114 0)
(0.997169 0.00138843 0)
(0.997053 0.0015159 0)
(0.996964 0.00167983 0)
(0.996851 0.00181899 0)
(0.996779 0.0019888 0)
(0.996678 0.00214242 0)
(0.996623 0.00231751 0)
(0.996527 0.00246993 0)
(0.996469 0.00263132 0)
(0.996373 0.00276537 0)
(0.996321 0.00289947 0)
(0.99621 0.00298299 0)
(0.996044 0.00301313 0)
(0.995616 0.00288726 0)
(1.00007 -0.000431406 0)
(0.999606 0.000108202 0)
(0.999514 -0.000103837 0)
(0.999606 0.000333035 0)
(0.999846 0.00014252 0)
(0.999776 -2.66338e-05 0)
(0.999601 -7.45911e-05 0)
(0.999427 -9.83718e-05 0)
(0.999229 2.15592e-05 0)
(0.999074 0.00014577 0)
(0.999131 0.000293008 0)
(0.999112 0.000268718 0)
(0.998987 0.000284816 0)
(0.998907 0.000298744 0)
(0.998819 0.000327773 0)
(0.998653 0.000344568 0)
(0.998598 0.000403261 0)
(0.998434 0.000422362 0)
(0.998262 0.000497639 0)
(0.998147 0.000537348 0)
(0.997995 0.000651441 0)
(0.997862 0.000751471 0)
(0.997707 0.000910477 0)
(0.997617 0.00103449 0)
(0.997502 0.00118893 0)
(0.997384 0.00132535 0)
(0.997287 0.00147219 0)
(0.997181 0.00161073 0)
(0.997107 0.00175747 0)
(0.997005 0.00190228 0)
(0.996941 0.00203941 0)
(0.996836 0.00216531 0)
(0.996767 0.00227063 0)
(0.996653 0.00236812 0)
(0.996585 0.00245672 0)
(0.996484 0.00254829 0)
(0.996419 0.00263062 0)
(0.99629 0.00270142 0)
(0.996113 0.00275269 0)
(0.995724 0.0027923 0)
(1.00006 -0.000388001 0)
(0.999636 7.54196e-05 0)
(0.999539 -5.25686e-05 0)
(0.999632 0.000272308 0)
(0.99983 0.000165153 0)
(0.999768 -2.04919e-05 0)
(0.999608 -5.54694e-05 0)
(0.999447 -4.96539e-05 0)
(0.999263 4.56527e-05 0)
(0.999113 0.000166689 0)
(0.999156 0.00028536 0)
(0.999124 0.000287975 0)
(0.999005 0.000304326 0)
(0.998925 0.000333597 0)
(0.998835 0.000356663 0)
(0.998678 0.000390035 0)
(0.998624 0.000445865 0)
(0.998466 0.000482415 0)
(0.998302 0.000559893 0)
(0.9982 0.000620601 0)
(0.998065 0.000743757 0)
(0.99795 0.0008533 0)
(0.997804 0.00100916 0)
(0.997716 0.00113344 0)
(0.997613 0.00127328 0)
(0.997501 0.00141431 0)
(0.997414 0.00155315 0)
(0.997317 0.00169621 0)
(0.997253 0.00182268 0)
(0.997152 0.00194976 0)
(0.99708 0.00204722 0)
(0.996964 0.00214883 0)
(0.996896 0.00223173 0)
(0.996799 0.00233404 0)
(0.996754 0.00242988 0)
(0.99667 0.00253901 0)
(0.996604 0.00263161 0)
(0.996456 0.00271994 0)
(0.996246 0.00278439 0)
(0.995815 0.00283832 0)
(1.00005 -0.000331355 0)
(0.999668 3.3233e-05 0)
(0.999565 9.61142e-06 0)
(0.999657 0.000218428 0)
(0.999819 0.000169786 0)
(0.99976 5.90205e-06 0)
(0.999616 -3.73817e-05 0)
(0.999468 -1.60353e-05 0)
(0.999297 7.10729e-05 0)
(0.999153 0.000183064 0)
(0.999183 0.000286244 0)
(0.99914 0.000304387 0)
(0.999022 0.000327252 0)
(0.998946 0.000361986 0)
(0.998861 0.000392701 0)
(0.998708 0.000434954 0)
(0.998655 0.000493808 0)
(0.998506 0.000542733 0)
(0.998348 0.000634626 0)
(0.998264 0.000705821 0)
(0.998143 0.000841898 0)
(0.99804 0.000950222 0)
(0.997904 0.00109185 0)
(0.997819 0.00121775 0)
(0.99773 0.0013453 0)
(0.997628 0.00148288 0)
(0.997551 0.00160632 0)
(0.997452 0.00173881 0)
(0.997381 0.00184642 0)
(0.997266 0.00196125 0)
(0.997193 0.00204664 0)
(0.997088 0.002148 0)
(0.997041 0.00223557 0)
(0.996965 0.00234288 0)
(0.996931 0.00243588 0)
(0.996849 0.00253635 0)
(0.996773 0.00261764 0)
(0.996613 0.00269743 0)
(0.996388 0.0027607 0)
(0.995955 0.00282266 0)
(1.00005 -0.000284251 0)
(0.999704 7.80328e-07 0)
(0.999592 4.6051e-05 0)
(0.999678 0.000190591 0)
(0.999814 0.000159212 0)
(0.999753 3.80091e-05 0)
(0.999627 -1.11344e-05 0)
(0.999494 1.62797e-05 0)
(0.999333 9.74411e-05 0)
(0.999191 0.000204954 0)
(0.999212 0.000291529 0)
(0.999161 0.000325046 0)
(0.999048 0.000353601 0)
(0.998971 0.000398817 0)
(0.998886 0.000430402 0)
(0.998743 0.000482987 0)
(0.998694 0.000550117 0)
(0.998556 0.000608466 0)
(0.998408 0.000717043 0)
(0.998338 0.00079413 0)
(0.998232 0.000924647 0)
(0.998133 0.00104058 0)
(0.99801 0.00116575 0)
(0.997927 0.00129648 0)
(0.997847 0.00141171 0)
(0.997748 0.00154725 0)
(0.997675 0.00165275 0)
(0.99758 0.00177101 0)
(0.997517 0.00186014 0)
(0.997408 0.0019701 0)
(0.99734 0.00206018 0)
(0.997244 0.0021697 0)
(0.997207 0.00226217 0)
(0.997139 0.00236667 0)
(0.997109 0.00245479 0)
(0.997027 0.00254661 0)
(0.996948 0.00262397 0)
(0.996787 0.00270072 0)
(0.996561 0.00276779 0)
(0.996132 0.00283302 0)
(1.00004 -0.000234381 0)
(0.999741 -3.11935e-05 0)
(0.999622 6.38817e-05 0)
(0.999699 0.000184164 0)
(0.999814 0.000156444 0)
(0.99975 6.20741e-05 0)
(0.999637 2.33264e-05 0)
(0.999519 4.46663e-05 0)
(0.999371 0.0001186 0)
(0.999232 0.00022246 0)
(0.999244 0.000303213 0)
(0.999187 0.000345758 0)
(0.999075 0.000383299 0)
(0.999 0.000431803 0)
(0.998921 0.000471836 0)
(0.998786 0.000534378 0)
(0.998739 0.000613012 0)
(0.998616 0.000676962 0)
(0.998474 0.000795733 0)
(0.998412 0.0008799 0)
(0.998325 0.00099268 0)
(0.998231 0.00111812 0)
(0.998119 0.00123515 0)
(0.998041 0.00136427 0)
(0.997973 0.00147364 0)
(0.997877 0.00160177 0)
(0.997801 0.00169997 0)
(0.9977 0.00180485 0)
(0.997639 0.00188575 0)
(0.997542 0.0019854 0)
(0.99749 0.00207464 0)
(0.997409 0.00217981 0)
(0.997379 0.00227249 0)
(0.997318 0.00237033 0)
(0.997289 0.00245576 0)
(0.99721 0.00254052 0)
(0.99713 0.00261621 0)
(0.996972 0.00268833 0)
(0.996745 0.00275515 0)
(0.996319 0.00281663 0)
(1.00003 -0.000188837 0)
(0.999779 -5.58509e-05 0)
(0.999656 7.63072e-05 0)
(0.99972 0.000182947 0)
(0.999815 0.000156425 0)
(0.99975 8.02087e-05 0)
(0.999649 5.48873e-05 0)
(0.999546 7.80766e-05 0)
(0.99941 0.000146739 0)
(0.999273 0.000241964 0)
(0.999279 0.000316604 0)
(0.999217 0.000366456 0)
(0.999109 0.000416273 0)
(0.999035 0.000471058 0)
(0.998958 0.000521111 0)
(0.998836 0.000586953 0)
(0.998792 0.000677647 0)
(0.998683 0.000746447 0)
(0.998553 0.00086233 0)
(0.99849 0.000961174 0)
(0.998422 0.00106039 0)
(0.998339 0.00118386 0)
(0.998234 0.00130216 0)
(0.998158 0.00142124 0)
(0.998096 0.00152399 0)
(0.998001 0.00163537 0)
(0.997922 0.00172996 0)
(0.997823 0.00182835 0)
(0.997773 0.00191417 0)
(0.997692 0.00201271 0)
(0.997654 0.00210448 0)
(0.997584 0.00220449 0)
(0.99756 0.00229462 0)
(0.997503 0.00238554 0)
(0.997475 0.00246697 0)
(0.997398 0.00254573 0)
(0.997318 0.00261774 0)
(0.997162 0.00268516 0)
(0.996934 0.00274829 0)
(0.99651 0.00280565 0)
(1.00003 -0.000147934 0)
(0.999815 -7.33895e-05 0)
(0.999694 8.1788e-05 0)
(0.999741 0.000182517 0)
(0.999818 0.000159906 0)
(0.999754 0.000101775 0)
(0.999664 8.65005e-05 0)
(0.999573 0.000109699 0)
(0.999449 0.000173132 0)
(0.999315 0.000264375 0)
(0.999316 0.000334403 0)
(0.999253 0.000389026 0)
(0.999146 0.000451033 0)
(0.999074 0.000510479 0)
(0.999005 0.000572711 0)
(0.998894 0.000643701 0)
(0.998854 0.000737697 0)
(0.998754 0.000818119 0)
(0.998638 0.00092172 0)
(0.998576 0.00103142 0)
(0.998518 0.00112993 0)
(0.998452 0.00123876 0)
(0.998351 0.00135893 0)
(0.998274 0.00146744 0)
(0.998216 0.00156665 0)
(0.998127 0.00166608 0)
(0.998056 0.00176047 0)
(0.99796 0.00186072 0)
(0.99792 0.00194924 0)
(0.997849 0.00204648 0)
(0.997823 0.00213388 0)
(0.997761 0.00222827 0)
(0.997741 0.00231134 0)
(0.997689 0.00239628 0)
(0.997661 0.00247089 0)
(0.997587 0.00254469 0)
(0.997507 0.00261077 0)
(0.997352 0.00267428 0)
(0.997125 0.00273227 0)
(0.996702 0.00278651 0)
(1.00003 -0.000110208 0)
(0.999851 -8.65405e-05 0)
(0.999735 8.35052e-05 0)
(0.999763 0.00018375 0)
(0.999822 0.000167823 0)
(0.99976 0.000124581 0)
(0.99968 0.000117735 0)
(0.999602 0.000140597 0)
(0.99949 0.000201257 0)
(0.999358 0.000289615 0)
(0.999355 0.000355249 0)
(0.999294 0.000413261 0)
(0.999191 0.000485664 0)
(0.999121 0.000552752 0)
(0.999054 0.000626242 0)
(0.998955 0.000703223 0)
(0.998923 0.000791879 0)
(0.998829 0.000884757 0)
(0.998728 0.000982344 0)
(0.998673 0.00108607 0)
(0.998617 0.00119603 0)
(0.998566 0.00129038 0)
(0.998475 0.0014075 0)
(0.998395 0.0015118 0)
(0.99834 0.00160751 0)
(0.998256 0.0017038 0)
(0.998197 0.00179123 0)
(0.998108 0.00189232 0)
(0.998075 0.00197657 0)
(0.998012 0.00207346 0)
(0.997994 0.00215343 0)
(0.997939 0.00224387 0)
(0.997923 0.00231859 0)
(0.997874 0.00239899 0)
(0.997847 0.00246631 0)
(0.997776 0.00253611 0)
(0.997697 0.00259623 0)
(0.997544 0.00265638 0)
(0.997316 0.00270949 0)
(0.996895 0.00276085 0)
(1.00002 -7.93583e-05 0)
(0.999884 -8.10303e-05 0)
(0.99978 7.48012e-05 0)
(0.999786 0.000180079 0)
(0.999829 0.000177129 0)
(0.999768 0.000147358 0)
(0.999698 0.000150573 0)
(0.999629 0.00017415 0)
(0.999531 0.000227763 0)
(0.999403 0.000314879 0)
(0.999395 0.000381665 0)
(0.999339 0.00044045 0)
(0.99924 0.000523449 0)
(0.999173 0.000594591 0)
(0.999115 0.00067461 0)
(0.999019 0.000763637 0)
(0.998997 0.000844754 0)
(0.998913 0.000944389 0)
(0.998815 0.00104771 0)
(0.998775 0.00113505 0)
(0.998722 0.0012514 0)
(0.998678 0.00134146 0)
(0.998601 0.00144918 0)
(0.998519 0.00155251 0)
(0.998469 0.00164084 0)
(0.998387 0.00173909 0)
(0.998341 0.00181817 0)
(0.99826 0.00191847 0)
(0.998236 0.00199587 0)
(0.998179 0.00209079 0)
(0.998166 0.00216453 0)
(0.998117 0.00225074 0)
(0.998103 0.00231934 0)
(0.998059 0.00239443 0)
(0.998033 0.00245639 0)
(0.997966 0.00252098 0)
(0.997886 0.00257683 0)
(0.997736 0.00263232 0)
(0.997508 0.00268198 0)
(0.997088 0.00272905 0)
(1.00002 -5.5817e-05 0)
(0.999911 -5.81929e-05 0)
(0.99982 5.65187e-05 0)
(0.999811 0.000170382 0)
(0.999836 0.000187908 0)
(0.999776 0.000172674 0)
(0.999715 0.000182402 0)
(0.999655 0.00020892 0)
(0.99957 0.000258994 0)
(0.999446 0.000341537 0)
(0.999435 0.000410246 0)
(0.999386 0.000469805 0)
(0.999294 0.000560539 0)
(0.999228 0.000640333 0)
(0.999178 0.000718383 0)
(0.999087 0.000817254 0)
(0.999071 0.000898686 0)
(0.999003 0.000990611 0)
(0.998904 0.00110953 0)
(0.998874 0.00118562 0)
(0.998833 0.00129449 0)
(0.99879 0.00138904 0)
(0.998729 0.00148434 0)
(0.998644 0.00159013 0)
(0.998601 0.00166869 0)
(0.998522 0.00176896 0)
(0.998487 0.00184095 0)
(0.998413 0.00193825 0)
(0.998396 0.00200981 0)
(0.998347 0.00209942 0)
(0.998338 0.00216926 0)
(0.998296 0.00224934 0)
(0.998282 0.00231503 0)
(0.998241 0.00238332 0)
(0.998214 0.00244241 0)
(0.998151 0.00250005 0)
(0.998072 0.00255337 0)
(0.997925 0.00260266 0)
(0.997695 0.00265038 0)
(0.997277 0.00269208 0)
(1.00002 -3.52262e-05 0)
(0.99993 -3.92996e-05 0)
(0.999855 5.05461e-05 0)
(0.999838 0.000159153 0)
(0.999846 0.000195054 0)
(0.999785 0.000197394 0)
(0.99973 0.000215117 0)
(0.999678 0.000244289 0)
(0.999606 0.000292397 0)
(0.999489 0.000372278 0)
(0.999475 0.000441656 0)
(0.999436 0.000500883 0)
(0.999352 0.000596408 0)
(0.999284 0.000685741 0)
(0.999246 0.000761731 0)
(0.99916 0.00086399 0)
(0.999143 0.000952601 0)
(0.9991 0.001033 0)
(0.999 0.00116017 0)
(0.998967 0.00124084 0)
(0.998945 0.00133288 0)
(0.998903 0.00143085 0)
(0.998857 0.00151472 0)
(0.99877 0.00162098 0)
(0.998733 0.00169246 0)
(0.998659 0.00178893 0)
(0.998631 0.00185771 0)
(0.998567 0.00194842 0)
(0.998554 0.00201817 0)
(0.998515 0.00209928 0)
(0.998509 0.00216747 0)
(0.998474 0.00223898 0)
(0.998459 0.00230357 0)
(0.998422 0.00236415 0)
(0.998392 0.00242192 0)
(0.998334 0.00247225 0)
(0.998253 0.0025238 0)
(0.998111 0.00256667 0)
(0.99788 0.00261279 0)
(0.997464 0.00264926 0)
(1.00001 -1.97767e-05 0)
(0.999946 -2.00922e-05 0)
(0.999886 5.75361e-05 0)
(0.999863 0.000147498 0)
(0.999859 0.00019579 0)
(0.999795 0.000218233 0)
(0.999746 0.000246658 0)
(0.999701 0.000279499 0)
(0.999641 0.000327745 0)
(0.999531 0.000406213 0)
(0.999514 0.000476638 0)
(0.999485 0.0005336 0)
(0.999415 0.000627625 0)
(0.999345 0.000727694 0)
(0.999312 0.000806008 0)
(0.999239 0.000903783 0)
(0.999217 0.00100339 0)
(0.999195 0.00107414 0)
(0.999109 0.00119505 0)
(0.999061 0.00129115 0)
(0.999052 0.00136891 0)
(0.999016 0.00146499 0)
(0.998984 0.00153929 0)
(0.998899 0.00164146 0)
(0.998864 0.00171111 0)
(0.998797 0.00179983 0)
(0.998775 0.00186843 0)
(0.998723 0.00195003 0)
(0.998712 0.00202049 0)
(0.998682 0.0020921 0)
(0.998677 0.00215961 0)
(0.99865 0.00222181 0)
(0.998633 0.00228519 0)
(0.998599 0.00233836 0)
(0.998567 0.00239476 0)
(0.998511 0.00243891 0)
(0.99843 0.00248832 0)
(0.998291 0.00252587 0)
(0.99806 0.0025696 0)
(0.997646 0.00260191 0)
(1.00001 -7.3169e-06 0)
(0.999958 -1.00087e-06 0)
(0.999909 6.54801e-05 0)
(0.999885 0.000141021 0)
(0.999874 0.000195928 0)
(0.999809 0.00023469 0)
(0.999762 0.00027624 0)
(0.999722 0.000315004 0)
(0.999675 0.000362696 0)
(0.999573 0.000441547 0)
(0.999552 0.00051515 0)
(0.999531 0.000570395 0)
(0.99948 0.000658084 0)
(0.999411 0.00076224 0)
(0.999381 0.000848513 0)
(0.999322 0.000940619 0)
(0.999294 0.00104602 0)
(0.999285 0.00111786 0)
(0.999224 0.00122165 0)
(0.999162 0.0013294 0)
(0.999156 0.00140272 0)
(0.999125 0.00149231 0)
(0.999107 0.00155987 0)
(0.99903 0.001652 0)
(0.998994 0.00172275 0)
(0.998936 0.00180255 0)
(0.998918 0.00187187 0)
(0.998878 0.00194405 0)
(0.998869 0.00201436 0)
(0.998846 0.00207792 0)
(0.998842 0.00214351 0)
(0.998822 0.00219829 0)
(0.998805 0.00225855 0)
(0.998775 0.00230607 0)
(0.99874 0.00235944 0)
(0.998685 0.00239947 0)
(0.998603 0.00244555 0)
(0.998466 0.00247965 0)
(0.998236 0.00251982 0)
(0.997823 0.00254941 0)
(1.00001 1.85384e-06 0)
(0.999967 1.66842e-05 0)
(0.999928 7.63259e-05 0)
(0.999904 0.00014284 0)
(0.99989 0.000197857 0)
(0.999826 0.000247948 0)
(0.999781 0.000299102 0)
(0.999744 0.000347254 0)
(0.999707 0.000396224 0)
(0.999615 0.000474723 0)
(0.99959 0.000553833 0)
(0.999575 0.000610501 0)
(0.999545 0.000689388 0)
(0.999483 0.000791545 0)
(0.999452 0.000885908 0)
(0.999407 0.000974486 0)
(0.999379 0.00107883 0)
(0.999371 0.00115845 0)
(0.999337 0.00124493 0)
(0.999272 0.00135328 0)
(0.99926 0.00142897 0)
(0.999231 0.0015117 0)
(0.999222 0.00157532 0)
(0.999159 0.00165442 0)
(0.999125 0.00172569 0)
(0.999075 0.00179759 0)
(0.999061 0.00186719 0)
(0.999032 0.00193155 0)
(0.999025 0.00199976 0)
(0.999008 0.00205722 0)
(0.999004 0.00211942 0)
(0.998988 0.00216902 0)
(0.998973 0.00222452 0)
(0.998945 0.00226803 0)
(0.99891 0.00231678 0)
(0.998854 0.00235424 0)
(0.998772 0.00239594 0)
(0.998636 0.00242806 0)
(0.998406 0.00246385 0)
(0.997993 0.00249183 0)
(1.00001 9.42949e-06 0)
(0.999973 3.22023e-05 0)
(0.999942 8.81629e-05 0)
(0.999918 0.000149253 0)
(0.999905 0.000202054 0)
(0.999844 0.000259991 0)
(0.999802 0.000319338 0)
(0.999766 0.00037516 0)
(0.999739 0.00042865 0)
(0.99966 0.000505013 0)
(0.99963 0.000590548 0)
(0.999615 0.000652315 0)
(0.999604 0.000724222 0)
(0.999556 0.000818334 0)
(0.999527 0.000915887 0)
(0.999492 0.00100498 0)
(0.999468 0.00110282 0)
(0.999457 0.00118961 0)
(0.999445 0.00126648 0)
(0.999387 0.00136582 0)
(0.999367 0.00144428 0)
(0.999334 0.0015211 0)
(0.99933 0.00158307 0)
(0.999283 0.00165063 0)
(0.999256 0.00171957 0)
(0.999215 0.00178533 0)
(0.999203 0.00185299 0)
(0.999183 0.00191217 0)
(0.99918 0.00197591 0)
(0.999167 0.00202926 0)
(0.999163 0.00208651 0)
(0.999149 0.00213295 0)
(0.999136 0.00218295 0)
(0.999109 0.00222366 0)
(0.999075 0.0022672 0)
(0.999019 0.00230272 0)
(0.998937 0.00233994 0)
(0.998799 0.00237059 0)
(0.998571 0.00240232 0)
(0.998158 0.00242894 0)
(1.00001 1.52604e-05 0)
(0.999978 4.50576e-05 0)
(0.999955 0.000100134 0)
(0.999931 0.000159415 0)
(0.999919 0.000211238 0)
(0.999864 0.000271563 0)
(0.999825 0.000337114 0)
(0.99979 0.000398011 0)
(0.999771 0.000456728 0)
(0.999704 0.000530645 0)
(0.999675 0.000619541 0)
(0.999657 0.0006919 0)
(0.999659 0.000760327 0)
(0.999629 0.000845532 0)
(0.999606 0.000940296 0)
(0.999576 0.0010295 0)
(0.999561 0.00112033 0)
(0.999546 0.00120852 0)
(0.999546 0.00128224 0)
(0.9995 0.00136922 0)
(0.999476 0.00144663 0)
(0.999439 0.00151833 0)
(0.999434 0.00158023 0)
(0.999401 0.0016397 0)
(0.999384 0.00170418 0)
(0.999353 0.00176443 0)
(0.999346 0.00182807 0)
(0.999331 0.00188318 0)
(0.999331 0.00194129 0)
(0.999322 0.00199096 0)
(0.999319 0.00204243 0)
(0.999306 0.00208603 0)
(0.999294 0.00213042 0)
(0.999268 0.00216859 0)
(0.999235 0.00220693 0)
(0.999178 0.00224038 0)
(0.999097 0.00227321 0)
(0.998959 0.00230219 0)
(0.998731 0.0023301 0)
(0.998317 0.00235515 0)
(1.00001 2.00962e-05 0)
(0.999983 5.70305e-05 0)
(0.999964 0.000111895 0)
(0.999941 0.000171495 0)
(0.999932 0.000224555 0)
(0.999885 0.000285231 0)
(0.99985 0.000354213 0)
(0.999817 0.000418452 0)
(0.999804 0.000480277 0)
(0.99975 0.000553387 0)
(0.999726 0.000639752 0)
(0.999703 0.000722846 0)
(0.99971 0.000794564 0)
(0.999696 0.000871469 0)
(0.999685 0.000960261 0)
(0.999661 0.00104751 0)
(0.999653 0.00113343 0)
(0.999638 0.00121839 0)
(0.999643 0.00129208 0)
(0.999608 0.0013695 0)
(0.999585 0.0014442 0)
(0.999545 0.00151289 0)
(0.999538 0.00157535 0)
(0.999515 0.00163177 0)
(0.999509 0.00169152 0)
(0.999488 0.00174767 0)
(0.999485 0.00180608 0)
(0.999475 0.00185815 0)
(0.999478 0.00191065 0)
(0.99947 0.00195723 0)
(0.999469 0.00200335 0)
(0.999456 0.00204434 0)
(0.999445 0.00208415 0)
(0.999419 0.00211999 0)
(0.999387 0.00215436 0)
(0.99933 0.00218573 0)
(0.999249 0.00221529 0)
(0.99911 0.0022425 0)
(0.998883 0.00226772 0)
(0.998468 0.00229116 0)
(1.00001 2.34548e-05 0)
(0.999986 6.63969e-05 0)
(0.999973 0.000121901 0)
(0.99995 0.000183159 0)
(0.999944 0.000239363 0)
(0.999904 0.000300198 0)
(0.999875 0.000370554 0)
(0.999844 0.000437628 0)
(0.999837 0.00050095 0)
(0.999794 0.000574474 0)
(0.999779 0.00065571 0)
(0.999757 0.000740824 0)
(0.999763 0.000819011 0)
(0.99976 0.000889844 0)
(0.999761 0.000969364 0)
(0.999745 0.00104892 0)
(0.999745 0.00112762 0)
(0.999732 0.00120399 0)
(0.99974 0.00127346 0)
(0.999715 0.00134222 0)
(0.999697 0.00141094 0)
(0.999658 0.00147597 0)
(0.999649 0.0015366 0)
(0.99963 0.001591 0)
(0.999632 0.00164511 0)
(0.99962 0.00169662 0)
(0.999623 0.00174818 0)
(0.999616 0.00179613 0)
(0.999622 0.00184232 0)
(0.999615 0.00188506 0)
(0.999616 0.00192561 0)
(0.999603 0.00196338 0)
(0.999594 0.00199868 0)
(0.999568 0.00203179 0)
(0.999538 0.00206241 0)
(0.999481 0.00209135 0)
(0.9994 0.00211789 0)
(0.999261 0.00214308 0)
(0.999034 0.002166 0)
(0.998618 0.00218783 0)
(1 2.70721e-05 0)
(0.999989 7.59468e-05 0)
(0.999981 0.000132971 0)
(0.99996 0.000195413 0)
(0.999956 0.000254726 0)
(0.999924 0.000315471 0)
(0.999902 0.000384648 0)
(0.999873 0.000454425 0)
(0.999873 0.000517918 0)
(0.999839 0.000592284 0)
(0.999831 0.000672181 0)
(0.999814 0.000753156 0)
(0.999817 0.000838346 0)
(0.999816 0.000911781 0)
(0.999828 0.000987803 0)
(0.999819 0.00106454 0)
(0.999824 0.00114096 0)
(0.999814 0.00121522 0)
(0.999827 0.00128278 0)
(0.99981 0.00134857 0)
(0.999801 0.00141288 0)
(0.999767 0.00147603 0)
(0.999757 0.00153462 0)
(0.99974 0.00158847 0)
(0.999746 0.00163871 0)
(0.99974 0.00168686 0)
(0.999749 0.00173304 0)
(0.999745 0.00177731 0)
(0.999753 0.00181887 0)
(0.999748 0.00185826 0)
(0.999751 0.00189477 0)
(0.999739 0.00192929 0)
(0.999731 0.00196091 0)
(0.999706 0.00199068 0)
(0.999677 0.00201769 0)
(0.999621 0.00204308 0)
(0.999541 0.00206603 0)
(0.999403 0.00208764 0)
(0.999176 0.00210714 0)
(0.998761 0.00212553 0)
(1 2.6847e-05 0)
(0.999991 8.23542e-05 0)
(0.999987 0.000142182 0)
(0.999968 0.000208794 0)
(0.999967 0.000270482 0)
(0.999941 0.000332879 0)
(0.999928 0.000398492 0)
(0.999902 0.000469123 0)
(0.999907 0.000531934 0)
(0.999883 0.000601865 0)
(0.999882 0.000677825 0)
(0.999874 0.000748881 0)
(0.999883 0.000826062 0)
(0.999883 0.000894919 0)
(0.999903 0.000959458 0)
(0.999904 0.00102409 0)
(0.999919 0.00108663 0)
(0.999912 0.0011501 0)
(0.999927 0.00120709 0)
(0.999916 0.00126484 0)
(0.999914 0.00132103 0)
(0.999884 0.00138053 0)
(0.999876 0.00143688 0)
(0.999858 0.00149009 0)
(0.999865 0.00153722 0)
(0.999862 0.00158144 0)
(0.999875 0.00162232 0)
(0.999874 0.00166208 0)
(0.999885 0.0016998 0)
(0.999881 0.00173673 0)
(0.999885 0.00177204 0)
(0.999873 0.00180651 0)
(0.999863 0.00183939 0)
(0.999835 0.00187114 0)
(0.999803 0.00190118 0)