/*--------------------------------*- C++ -*----------------------------------*\
| =========                 |                                                 |
| \\      /  F ield         | OpenFOAM: The Open Source CFD Toolbox           |
|  \\    /   O peration     | Version:  2312                                  |
|   \\  /    A nd           | Website:  www.openfoam.com                      |
|    \\/     M anipulation  |                                                 |
\*---------------------------------------------------------------------------*/
FoamFile
{
    version     2.0;
    format      ascii;
    arch        "LSB;label=32;scalar=64";
    class       volScalarField;
    location    "0.35";
    object      p;
}
// * * * * * * * * * * * * * * * * * * * * * * * * * * * * * * * * * * * * * //

dimensions      [0 2 -2 0 0 0 0];

internalField   nonuniform List<scalar> 
5600
(
1.09467e-08
0.000465591
0.000326235
0.000458528
0.000354071
0.000548431
0.000518312
0.000643101
0.00068736
0.00081693
0.000858411
0.000998503
0.00108568
0.00121277
0.00131078
0.00144101
0.00157671
0.00172111
0.00184691
0.00199175
0.00216851
0.00233634
0.00250686
0.00268934
0.00289343
0.00310056
0.00329752
0.00351048
0.00373808
0.0039824
0.0042365
0.00450802
0.00479042
0.00508279
0.00537493
0.00565921
0.0059412
0.00621705
0.00642316
0.00638718
2.43847e-06
0.000464073
0.000327539
0.000454174
0.000357523
0.000545319
0.00052046
0.000638788
0.000689413
0.000812047
0.000860521
0.000991294
0.00108667
0.00120799
0.00130978
0.00143609
0.00157383
0.0017159
0.00184196
0.00198749
0.00216076
0.00233036
0.00249581
0.00267501
0.00287708
0.00308022
0.00327838
0.00349079
0.00371784
0.00395545
0.00419432
0.0044319
0.00466306
0.00489631
0.00513042
0.00535114
0.00552792
0.00561952
0.00555735
0.0052206
4.66466e-06
0.000462592
0.000328586
0.000452879
0.000358769
0.000543448
0.000521184
0.000636938
0.000689731
0.000810113
0.000860693
0.000989808
0.00108613
0.00120593
0.00130851
0.00143384
0.00157159
0.0017137
0.00183883
0.00198337
0.00215604
0.00232458
0.00248963
0.00266713
0.00286708
0.00306821
0.00326301
0.00347015
0.00368925
0.00391629
0.00414167
0.00436211
0.00457465
0.00478812
0.00499946
0.00519272
0.00533764
0.00539962
0.00532006
0.00499441
8.32518e-06
0.000459434
0.000330866
0.0004482
0.000362434
0.000538721
0.000524094
0.000631504
0.000692317
0.000804081
0.000862936
0.000982431
0.00108708
0.00119972
0.00130709
0.00142849
0.0015673
0.00170914
0.00183231
0.00197631
0.0021474
0.00231356
0.00247635
0.00264963
0.00284678
0.0030443
0.00323639
0.00343804
0.00364697
0.00385409
0.00405062
0.00424479
0.00443976
0.00463235
0.00480832
0.0049481
0.00502576
0.00500917
0.00484816
0.00445094
1.17205e-05
0.000456084
0.000332878
0.000445204
0.000364953
0.000534999
0.000525623
0.000627621
0.000693195
0.000800252
0.000862693
0.00097798
0.00108525
0.00119617
0.00130395
0.00142449
0.00156281
0.00170357
0.00182551
0.00196803
0.0021374
0.00230149
0.00246144
0.00263161
0.00282419
0.00301641
0.00320097
0.00339127
0.00358545
0.00377467
0.00395388
0.00413116
0.00430859
0.00447899
0.00462669
0.00473368
0.00477838
0.00473483
0.00455933
0.00416627
1.63658e-05
0.000450907
0.000336304
0.000439409
0.000369633
0.00052847
0.000529487
0.000620776
0.000695451
0.000793354
0.000864075
0.000971363
0.00108302
0.00119271
0.00129932
0.00141863
0.00155603
0.0016961
0.00181612
0.00195648
0.00212417
0.0022852
0.00244164
0.00260676
0.00279325
0.00297855
0.00315233
0.00332693
0.00350201
0.0036742
0.00384216
0.00400778
0.00416864
0.00431746
0.00444094
0.0045227
0.00454323
0.00447652
0.00427912
0.00386505
2.10473e-05
0.000445155
0.000339541
0.000434635
0.000373462
0.000522769
0.000530901
0.000615025
0.000696634
0.000788237
0.000862163
0.000966977
0.00107904
0.00118832
0.00129403
0.00141144
0.00154817
0.00168754
0.00180481
0.00194275
0.00210765
0.00226558
0.00241685
0.00257567
0.00275463
0.00292893
0.00308788
0.0032442
0.003405
0.00356623
0.00372352
0.00387584
0.00401973
0.00414929
0.00425375
0.00431989
0.00432943
0.00425711
0.00405824
0.00364331
2.70301e-05
0.000437216
0.000344337
0.000427311
0.000379374
0.000513947
0.000535726
0.000607102
0.000697198
0.000783019
0.000858899
0.00096301
0.00107379
0.00118194
0.00128726
0.001403
0.00153812
0.00167672
0.00179083
0.00192551
0.00208696
0.00224091
0.00238568
0.00253572
0.00270361
0.00286325
0.0030054
0.00314779
0.00329855
0.00345002
0.0035948
0.00373258
0.00386063
0.00397486
0.00406602
0.00412334
0.00413004
0.00406265
0.00387778
0.00348833
3.33471e-05
0.000428223
0.00034904
0.000420724
0.000384302
0.000506464
0.00053718
0.000600538
0.000696427
0.000778801
0.000853905
0.000957755
0.00106816
0.00117484
0.00127937
0.0013928
0.00152601
0.00166347
0.00177398
0.00190424
0.00206228
0.00221052
0.00234776
0.0024855
0.00263744
0.00278001
0.00291023
0.00304372
0.00318322
0.0033202
0.00344854
0.00357189
0.00369103
0.00380537
0.00390704
0.00398514
0.00402006
0.00398107
0.00380744
0.0033773
4.10598e-05
0.000416613
0.000355137
0.000412005
0.000391081
0.000496009
0.000540852
0.000591903
0.000693547
0.000775578
0.000847735
0.000950892
0.00106184
0.00116612
0.00126962
0.00138043
0.00151176
0.00164692
0.00175359
0.00187786
0.00203196
0.00217123
0.00229705
0.00241987
0.00255773
0.0026916
0.0028137
0.00293554
0.0030589
0.00317479
0.00327432
0.00336088
0.00344047
0.00352289
0.00361038
0.0036924
0.0037646
0.00385391
0.00403282
0.00444226
4.93705e-05
0.000403687
0.000361103
0.000403954
0.000396042
0.000486234
0.000540783
0.000588469
0.000688209
0.000770513
0.000841483
0.000942963
0.00105349
0.00115615
0.0012578
0.00136586
0.00149415
0.0016272
0.00172917
0.00184537
0.00199348
0.00212137
0.00223197
0.00234415
0.00247366
0.00259965
0.00271032
0.00281754
0.00292455
0.00302643
0.00311701
0.00320419
0.0032968
0.00339761
0.00349489
0.00358157
0.00366519
0.00377426
0.00396318
0.00433386
5.91812e-05
0.000387409
0.000367595
0.000395297
0.000401864
0.000478641
0.000535051
0.000584546
0.0006819
0.000764807
0.000834268
0.00093343
0.00104368
0.00114482
0.00124338
0.00134873
0.00147307
0.0016032
0.00169934
0.00180413
0.00194308
0.00206073
0.00215914
0.00226353
0.0023844
0.00250078
0.00259897
0.00269312
0.00279037
0.00289024
0.00298798
0.00308336
0.00317291
0.00325464
0.00332753
0.00339797
0.00348212
0.00361022
0.00383341
0.00424761
6.97481e-05
0.000370221
0.000373683
0.000387449
0.000402906
0.000474917
0.000528824
0.000578959
0.00067536
0.000758265
0.000825868
0.000922205
0.00103152
0.00113128
0.00122626
0.00132825
0.0014481
0.00157248
0.00166235
0.00175357
0.00188096
0.00199466
0.00208416
0.00217712
0.00228624
0.00239247
0.00248209
0.00257242
0.00267613
0.00278568
0.00288243
0.00296125
0.00302772
0.0030896
0.00315253
0.00322373
0.00331768
0.00345987
0.00369565
0.00411244
8.17576e-05
0.000349306
0.00037885
0.000383327
0.000400868
0.000470738
0.000522517
0.000571001
0.000666871
0.00075053
0.000815996
0.000908967
0.00101708
0.00111522
0.00120575
0.00130353
0.00141826
0.00153388
0.00161636
0.00169714
0.00181209
0.00192241
0.00200586
0.0020867
0.00218667
0.00228954
0.00237738
0.00246072
0.00255597
0.00265869
0.00274799
0.00281581
0.00286993
0.00292219
0.00298088
0.00305274
0.00314945
0.0032938
0.00352912
0.0039429
9.44795e-05
0.000328877
0.000380538
0.000379857
0.000396426
0.000465929
0.000517271
0.000562931
0.000656165
0.000740941
0.000804604
0.000893715
0.00100028
0.00109616
0.00118111
0.00127317
0.00138237
0.00148836
0.00156198
0.00163645
0.00173948
0.00184225
0.00192215
0.00199228
0.00208125
0.0021808
0.00227193
0.00235501
0.00244106
0.00252889
0.00260466
0.00266208
0.00270786
0.00275393
0.00280888
0.0028793
0.00297556
0.00311922
0.00335343
0.00376655
0.000108256
0.000308028
0.000377004
0.000377117
0.000392414
0.000459938
0.000511176
0.000554517
0.000643795
0.000728716
0.00079067
0.000875399
0.000980454
0.00107381
0.00115174
0.00123591
0.00133959
0.00143868
0.00150183
0.00156912
0.00166285
0.00175502
0.00183174
0.00189536
0.00197583
0.00207371
0.00216757
0.00224697
0.0023189
0.00238956
0.00245184
0.00250118
0.00254162
0.00258343
0.00263503
0.00270337
0.00279839
0.00294133
0.00317482
0.00358715
0.000122369
0.000288398
0.000368517
0.000374164
0.000388131
0.000452914
0.000503963
0.000544869
0.000630061
0.000714691
0.000774184
0.000853164
0.000956283
0.00104785
0.00111816
0.00119192
0.00128889
0.0013846
0.00143831
0.00149388
0.00158122
0.00166482
0.00173662
0.00179792
0.00187169
0.00196281
0.00205173
0.00212593
0.00218733
0.00224432
0.00229478
0.00233697
0.0023731
0.00241175
0.00246048
0.00252667
0.00262037
0.00276271
0.0029959
0.00340812
0.000136706
0.00026939
0.000355221
0.000370217
0.000383494
0.00044549
0.000496526
0.000533779
0.000613901
0.000698833
0.000755595
0.000826406
0.000926102
0.00101696
0.00108097
0.00114334
0.00122997
0.00132368
0.00137291
0.00141282
0.00149282
0.0015717
0.00163722
0.00169566
0.00176366
0.00184694
0.0019275
0.00199519
0.00204875
0.00209582
0.00213685
0.0021723
0.00220419
0.00223971
0.00228589
0.00235011
0.00244251
0.00258385
0.00281607
0.00322748
0.000150995
0.000252521
0.00033594
0.000364447
0.000378108
0.000436466
0.000488582
0.000522002
0.000594562
0.000679764
0.000735231
0.000796317
0.000888929
0.000979011
0.0010393
0.0010915
0.0011647
0.00125395
0.00130451
0.0013302
0.0013968
0.00147296
0.00153448
0.00158878
0.00165033
0.00172578
0.00179791
0.001858
0.00190439
0.00194405
0.00197831
0.00200807
0.00203563
0.00206755
0.00211095
0.00217324
0.00226465
0.00240538
0.00263709
0.00304804
0.000162405
0.000238374
0.000316255
0.000354432
0.000370867
0.000425412
0.000479547
0.000510554
0.000572381
0.000655704
0.000712451
0.000763989
0.000845874
0.00093292
0.00099137
0.00103631
0.00109542
0.00117537
0.00123012
0.00124755
0.00129547
0.00136653
0.00142702
0.00147807
0.00153263
0.00159962
0.00166402
0.00171645
0.00175582
0.00178873
0.00181766
0.00184317
0.00186734
0.00189588
0.00193629
0.0019964
0.00208685
0.00222735
0.00245905
0.00286987
0.000170657
0.000228303
0.000295964
0.000338385
0.000360585
0.000412024
0.000467895
0.000499365
0.000549425
0.000626081
0.000684899
0.000729353
0.000798017
0.000878852
0.000936038
0.000976291
0.00102317
0.00108989
0.00114653
0.00116342
0.00119308
0.00125319
0.00131293
0.00136327
0.00141189
0.00146946
0.001526
0.00157151
0.00160442
0.00163068
0.00165457
0.00167686
0.001699
0.00172528
0.00176306
0.00182074
0.00190977
0.0020499
0.00228182
0.00269287
0.000175987
0.000218545
0.000276483
0.00032039
0.000346719
0.000395404
0.000452189
0.000486147
0.000526402
0.000592672
0.000651271
0.000691325
0.000746529
0.000817796
0.000872974
0.000910441
0.000947776
0.000999666
0.00105336
0.00107457
0.00109163
0.00113673
0.00119269
0.00124355
0.00128844
0.00133656
0.00138435
0.00142319
0.00145062
0.00147108
0.00149004
0.00150932
0.00153016
0.00155544
0.0015915
0.00164696
0.00173414
0.00187344
0.00210541
0.00251689
0.000177865
0.000209187
0.000257965
0.000301047
0.000328805
0.000374355
0.000431281
0.000468816
0.000503236
0.000557351
0.000612015
0.000648777
0.000691479
0.000750757
0.000802112
0.000837566
0.00086819
0.000906817
0.000952427
0.000977618
0.000989827
0.00102089
0.00106896
0.00111846
0.00116093
0.00120098
0.00123977
0.00127193
0.00129464
0.0013106
0.00132526
0.00134162
0.00136121
0.00138609
0.00142136
0.00147528
0.00156067
0.00169876
0.0019304
0.00234221
0.000175994
0.000199617
0.000239286
0.000280025
0.000308854
0.000349918
0.000404443
0.000445462
0.000477148
0.000520407
0.000568483
0.000601265
0.000633019
0.000679158
0.000723876
0.000757084
0.000783245
0.000811652
0.0008468
0.000872303
0.000884698
0.000906413
0.000945044
0.000989853
0.00102919
0.00106265
0.0010931
0.00111859
0.00113707
0.0011497
0.00116097
0.00117457
0.00119271
0.00121729
0.00125235
0.00130551
0.00138958
0.00152644
0.00175742
0.00216927
0.000170443
0.00018873
0.00022077
0.000257545
0.000286629
0.000322977
0.000372019
0.00041465
0.000445972
0.000480903
0.000521356
0.000549462
0.000571048
0.000604145
0.000639962
0.00066884
0.00069149
0.000713314
0.000738876
0.000760799
0.000774288
0.000791808
0.000822516
0.000860225
0.000894247
0.000921416
0.000944354
0.000963591
0.000978174
0.000988422
0.000997449
0.00100889
0.00102552
0.00104955
0.00108457
0.00113752
0.00122092
0.0013569
0.00158724
0.00199899
0.00016121
0.000175641
0.000201448
0.000233541
0.000261458
0.000293625
0.000335796
0.000376569
0.000408094
0.000436901
0.000469636
0.000493326
0.000506007
0.000526649
0.000552684
0.000574768
0.000593067
0.000610173
0.000628975
0.000646425
0.000659885
0.000675774
0.000700729
0.000730886
0.000757919
0.000778204
0.000794036
0.000807365
0.000818239
0.000826628
0.000834357
0.000844409
0.000859681
0.000882823
0.000917493
0.000970351
0.00105355
0.00118913
0.00141904
0.00183066
0.000148415
0.000159931
0.000180631
0.000207845
0.000233442
0.000261558
0.000296938
0.000333014
0.000363003
0.00038687
0.000411971
0.00043187
0.000438153
0.000447169
0.000463194
0.000477166
0.000489378
0.000502193
0.000516754
0.000531047
0.000544237
0.000559583
0.000580043
0.000602606
0.000621584
0.000634641
0.000643904
0.000651982
0.00065963
0.000666685
0.000673842
0.000683178
0.000697439
0.000719711
0.000753997
0.000806922
0.000890337
0.00102605
0.00125605
0.00166792
0.000131746
0.000140903
0.000157355
0.000179821
0.000202261
0.000226241
0.000255388
0.000285649
0.000311803
0.000330902
0.000348083
0.000363865
0.000367098
0.000366515
0.000371842
0.000376598
0.000380762
0.00038757
0.000398417
0.000411273
0.000424175
0.000437981
0.00045385
0.000469774
0.000481845
0.000488537
0.000491806
0.00049471
0.000498821
0.000504256
0.000510981
0.000520039
0.000533609
0.000554878
0.000588243
0.000640599
0.000723798
0.000859536
0.00108968
0.0015019
0.000112015
0.000118718
0.000131199
0.000148912
0.000167552
0.000187267
0.000210605
0.000234394
0.000254979
0.000269267
0.000279475
0.000290408
0.000293301
0.000288268
0.000285813
0.000283639
0.000281013
0.000281136
0.000286431
0.000296378
0.000308214
0.000320258
0.000332049
0.000342477
0.00034907
0.000350755
0.000349067
0.000347127
0.000347288
0.000350371
0.00035622
0.000365037
0.000378212
0.000398635
0.000430885
0.000482158
0.00056445
0.000699344
0.000928614
0.00133987
8.7146e-05
9.23333e-05
0.000101764
0.000115258
0.000130023
0.000145358
0.000162713
0.000179646
0.000193301
0.000201965
0.000205388
0.000208192
0.000206646
0.000196088
0.00018456
0.000174598
0.000164786
0.000157765
0.000156927
0.000163216
0.000173817
0.000185224
0.000195522
0.00020341
0.00020692
0.000205148
0.000199475
0.000193092
0.000189159
0.000189588
0.000194907
0.000205222
0.00022122
0.00024497
0.000280536
0.00033493
0.000420196
0.000558034
0.000790283
0.00120462
6.15929e-05
6.0983e-05
6.64781e-05
7.66216e-05
8.84294e-05
9.97302e-05
0.000111176
0.000121661
0.000130104
0.000136169
0.000138835
0.000139695
0.000137938
0.000128826
0.000116441
0.000104634
9.22938e-05
7.95167e-05
6.80885e-05
5.98194e-05
5.55791e-05
5.65542e-05
6.29847e-05
7.16406e-05
7.74086e-05
7.62913e-05
6.77104e-05
5.41393e-05
3.94087e-05
2.67669e-05
1.83246e-05
1.52251e-05
1.86155e-05
3.05466e-05
5.5017e-05
9.90966e-05
0.000175146
0.000305314
0.000532033
0.000943692
2.63567e-05
2.83423e-05
3.18887e-05
3.70864e-05
4.27266e-05
4.78051e-05
5.25644e-05
5.61732e-05
5.70591e-05
5.47919e-05
4.87485e-05
3.91912e-05
2.659e-05
8.95413e-06
-1.15102e-05
-3.13296e-05
-4.88518e-05
-6.27374e-05
-7.24163e-05
-7.6116e-05
-7.33574e-05
-6.67255e-05
-6.0246e-05
-5.6998e-05
-5.81058e-05
-6.32753e-05
-7.10599e-05
-7.93544e-05
-8.56744e-05
-8.78491e-05
-8.43228e-05
-7.42198e-05
-5.67439e-05
-3.03535e-05
8.3644e-06
6.60091e-05
0.000154627
0.00029621
0.000533053
0.000953308
-1.57709e-05
-9.03913e-06
-5.41043e-06
-4.40026e-06
-4.68404e-06
-5.80762e-06
-5.58403e-06
-3.68165e-06
-2.3641e-06
-2.94785e-06
-6.03661e-06
-1.08348e-05
-1.71007e-05
-2.64234e-05
-3.81351e-05
-5.08348e-05
-6.3475e-05
-7.5286e-05
-8.79136e-05
-0.000101944
-0.000116884
-0.000131815
-0.00014668
-0.000162008
-0.000178575
-0.000197259
-0.00021889
-0.000243905
-0.00027223
-0.000303495
-0.000337562
-0.00037501
-0.000417458
-0.000467769
-0.000530484
-0.000612816
-0.000726921
-0.000894658
-0.00115826
-0.00160616
-5.20775e-05
-5.23194e-05
-5.43757e-05
-5.75094e-05
-6.18388e-05
-6.78151e-05
-7.47538e-05
-8.2422e-05
-9.25687e-05
-0.000106697
-0.000123848
-0.000143197
-0.000164323
-0.000186871
-0.000211814
-0.000237066
-0.000257646
-0.000271538
-0.000278957
-0.000281535
-0.000282303
-0.000284243
-0.000288685
-0.000294827
-0.000301115
-0.000306589
-0.000310985
-0.000314058
-0.000315121
-0.00031311
-0.000306819
-0.000295024
-0.000276254
-0.000248312
-0.000207459
-0.00014714
-5.56304e-05
8.86815e-05
0.000327803
0.000749776
-9.80371e-05
-9.89574e-05
-0.000101939
-0.000105948
-0.000110939
-0.000117305
-0.000124222
-0.000130866
-0.000137875
-0.000146106
-0.000154991
-0.000164043
-0.000173859
-0.000185844
-0.000201674
-0.000220938
-0.000241249
-0.00026125
-0.000281178
-0.000302183
-0.000325228
-0.000350576
-0.000377829
-0.000406476
-0.000436375
-0.000467688
-0.000500787
-0.000536022
-0.000573587
-0.000613588
-0.000656243
-0.000702162
-0.000752635
-0.000810036
-0.000878433
-0.000964729
-0.0010809
-0.00124867
-0.00151
-0.00195281
-0.000147283
-0.000151032
-0.000158943
-0.000169898
-0.000183019
-0.000198285
-0.000215531
-0.000234295
-0.000254517
-0.000276772
-0.000301245
-0.000327017
-0.000352816
-0.000377866
-0.000400978
-0.000421101
-0.00043695
-0.000447326
-0.000453522
-0.00045827
-0.000463822
-0.000471053
-0.000479502
-0.00048805
-0.00049545
-0.000500878
-0.000503944
-0.000504582
-0.000502696
-0.00049796
-0.000489701
-0.000476879
-0.000457923
-0.000430391
-0.000390298
-0.000330908
-0.000240415
-9.7212e-05
0.000140635
0.000561085
-0.000195615
-0.000199154
-0.00020622
-0.00021579
-0.000226715
-0.000238337
-0.000250631
-0.00026338
-0.000275963
-0.000288777
-0.00030249
-0.000317019
-0.000333122
-0.000350117
-0.000366992
-0.000386696
-0.000409598
-0.00043396
-0.000460038
-0.000487464
-0.000515351
-0.000543282
-0.000572186
-0.000603147
-0.000636201
-0.000670782
-0.000706354
-0.000742896
-0.000780645
-0.000820005
-0.000861467
-0.000905889
-0.000954735
-0.00101048
-0.00107719
-0.00116166
-0.00127574
-0.00144107
-0.00169961
-0.00213937
-0.000257655
-0.000264724
-0.000278055
-0.000296218
-0.00031776
-0.000341746
-0.000367628
-0.00039475
-0.000422286
-0.000449445
-0.000475949
-0.000501639
-0.000524584
-0.000543726
-0.000559465
-0.000571197
-0.000580405
-0.000589439
-0.000597859
-0.000605147
-0.000611754
-0.000618429
-0.000624945
-0.000630531
-0.000634752
-0.000637455
-0.000638489
-0.000637513
-0.000634158
-0.000628059
-0.000618762
-0.00060542
-0.000586507
-0.000559464
-0.000520155
-0.000461732
-0.000372354
-0.000230419
5.9865e-06
0.000424814
-0.000297556
-0.000301309
-0.000311358
-0.000326537
-0.00034511
-0.000365362
-0.000385785
-0.000405855
-0.000424572
-0.000441267
-0.00045536
-0.000468365
-0.000482534
-0.000497973
-0.000514797
-0.000533963
-0.000554378
-0.000576004
-0.000599166
-0.000622671
-0.000645222
-0.000666672
-0.000688233
-0.000710953
-0.000735251
-0.000761081
-0.000788415
-0.000817268
-0.000847753
-0.00088012
-0.000914928
-0.000953187
-0.000996516
-0.00104743
-0.00110996
-0.00119085
-0.00130195
-0.00146491
-0.00172179
-0.0021607
-0.000374851
-0.000383176
-0.000401331
-0.000427522
-0.000459037
-0.000493572
-0.000529154
-0.00056435
-0.000596835
-0.000624551
-0.000646941
-0.000665738
-0.000680719
-0.000691459
-0.000699649
-0.000704715
-0.00070736
-0.000709925
-0.000711529
-0.000710751
-0.000707586
-0.000703141
-0.000698147
-0.000692509
-0.000686182
-0.000679141
-0.000671333
-0.000662365
-0.000651827
-0.000639326
-0.000624482
-0.000606526
-0.000583988
-0.000554298
-0.000513292
-0.000454097
-0.000364891
-0.000224147
9.8896e-06
0.000424917
0.00614769
0.00622071
0.00650295
0.00668502
0.0066882
0.0065166
0.00622792
0.00589184
0.00556058
0.00526313
0.00501087
0.00480404
0.00463514
0.00449338
0.00436821
0.00425112
0.0041363
0.0040201
0.00390111
0.00377876
0.0036543
0.00352867
0.00340412
0.00328089
0.00316059
0.00304209
0.00292628
0.0028113
0.00269714
0.00258245
0.00246601
0.00234798
0.00222687
0.00210404
0.00197904
0.00185341
0.00172297
0.00159063
0.00145345
0.00131154
0.00116446
0.0010063
0.00083039
0.000648619
0.000453312
0.000266331
9.24075e-05
-0.000123487
-0.000378378
-0.000696429
-0.00108965
-0.00155053
-0.00203763
-0.00249027
-0.00283673
-0.00323214
-0.004063
-0.00513609
-0.00601993
-0.00655037
-0.0068525
-0.00720833
-0.0074353
-0.00716565
-0.00667469
-0.00627959
-0.0059178
-0.00558393
-0.00538527
-0.00529563
-0.00526949
-0.00528484
-0.00533559
-0.00540629
-0.00546874
-0.00554297
-0.0056159
-0.00564846
-0.00567945
-0.00570592
-0.00570061
-0.005704
-0.00573026
-0.00573541
-0.00571843
-0.00570846
-0.00571032
-0.00572555
-0.00575111
-0.0057892
-0.00583265
-0.00588395
-0.00594465
-0.00601129
-0.00608854
-0.00616686
-0.00625116
-0.00633755
-0.0064182
-0.00649736
0.00484949
0.00492377
0.00537719
0.00582038
0.00608814
0.0061408
0.00600283
0.00574599
0.00544645
0.00515779
0.00490696
0.0047025
0.00454085
0.00441061
0.00429848
0.00419324
0.00408774
0.003978
0.00386324
0.00374351
0.00362086
0.00349653
0.00337335
0.00325147
0.00313265
0.00301536
0.00290076
0.00278658
0.00267329
0.00255917
0.00244336
0.00232594
0.00220537
0.00208298
0.001958
0.00183278
0.00170208
0.00157006
0.00143284
0.00129099
0.00114419
0.000986279
0.000810737
0.000630114
0.000434883
0.00024836
7.40169e-05
-0.000143704
-0.000399049
-0.000715121
-0.00110513
-0.00156113
-0.00204087
-0.00249503
-0.00284568
-0.00322579
-0.00405131
-0.00512033
-0.00599629
-0.00651929
-0.00681583
-0.00717467
-0.00741125
-0.00714184
-0.00665113
-0.00626138
-0.00590628
-0.00557803
-0.00538182
-0.00529176
-0.0052644
-0.0052791
-0.00533024
-0.00540198
-0.00546505
-0.00554006
-0.00561387
-0.00564679
-0.00567818
-0.00570522
-0.00570022
-0.00570374
-0.00573021
-0.00573554
-0.00571863
-0.0057087
-0.0057106
-0.00572579
-0.00575122
-0.00578921
-0.00583262
-0.00588392
-0.00594463
-0.00601127
-0.00608851
-0.00616682
-0.00625112
-0.00633754
-0.0064182
-0.00649735
0.00465741
0.00476299
0.00525819
0.00574604
0.00605437
0.00613949
0.00602177
0.00577178
0.0054686
0.00517053
0.0049087
0.00469428
0.00452563
0.00439192
0.00427906
0.00417449
0.0040698
0.00396028
0.00384483
0.00372371
0.00359912
0.00347276
0.00334757
0.00322426
0.0031043
0.0029865
0.00287128
0.0027569
0.00264321
0.00252895
0.00241316
0.00229581
0.00217535
0.00205333
0.00192852
0.00180293
0.00167201
0.00153893
0.0014008
0.00125771
0.00110934
0.000950913
0.000777531
0.000598277
0.000406676
0.000216496
3.40139e-05
-0.000187688
-0.000447519
-0.00075687
-0.00113788
-0.00158119
-0.00203957
-0.00249345
-0.00287032
-0.00325892
-0.00403547
-0.00505344
-0.00590622
-0.0064226
-0.00671009
-0.00706214
-0.00730975
-0.00707506
-0.00661876
-0.00625195
-0.00590601
-0.00557864
-0.00538334
-0.0052949
-0.00526874
-0.00528318
-0.00533259
-0.0054025
-0.00546441
-0.00553837
-0.0056115
-0.00564435
-0.00567582
-0.00570295
-0.00569827
-0.00570215
-0.00572877
-0.0057343
-0.00571777
-0.0057082
-0.00571025
-0.00572558
-0.00575121
-0.00578934
-0.00583277
-0.00588402
-0.00594469
-0.00601133
-0.00608859
-0.00616691
-0.0062512
-0.00633761
-0.00641828
-0.00649741
0.00407764
0.00416268
0.00465272
0.00516097
0.0055122
0.00565812
0.0056096
0.00542555
0.00517753
0.00492187
0.00469128
0.00449927
0.00434737
0.00422798
0.00412916
0.00403889
0.00394831
0.00385187
0.0037478
0.00363598
0.00351877
0.00339812
0.00327746
0.00315798
0.00304161
0.00292733
0.0028155
0.00270434
0.00259336
0.00248168
0.00236773
0.00225229
0.00213303
0.00201246
0.00188812
0.00176351
0.00163312
0.0015002
0.00136275
0.00121922
0.00107122
0.00091377
0.000742122
0.000564522
0.00037425
0.000180105
-8.26219e-06
-0.000231694
-0.000492433
-0.000796505
-0.00116668
-0.00159862
-0.00203764
-0.00249094
-0.00289735
-0.00328264
-0.00400354
-0.00497637
-0.00580873
-0.00631663
-0.00659484
-0.00694064
-0.00720346
-0.00699793
-0.00656593
-0.00621301
-0.00588168
-0.00557102
-0.00538227
-0.00529334
-0.00526471
-0.00527658
-0.00532402
-0.00539373
-0.00545569
-0.00552961
-0.00560349
-0.00563704
-0.0056689
-0.00569708
-0.00569386
-0.00569858
-0.00572561
-0.00573174
-0.00571605
-0.00570736
-0.00570998
-0.00572557
-0.00575119
-0.00578925
-0.00583273
-0.00588406
-0.00594475
-0.00601134
-0.00608853
-0.00616683
-0.00625112
-0.00633763
-0.00641841
-0.0064975
0.00381151
0.00391493
0.00442992
0.00496616
0.00534624
0.00552054
0.00549803
0.00533561
0.00510383
0.00485931
0.00463575
0.00444787
0.0042984
0.00418114
0.004085
0.00399816
0.00391136
0.00381854
0.0037173
0.00360735
0.00349092
0.00337042
0.0032493
0.00312931
0.0030124
0.00289801
0.00278617
0.00267517
0.00256427
0.00245247
0.0023385
0.00222274
0.0021032
0.00198198
0.00185754
0.00173217
0.0016019
0.00146829
0.00133026
0.00118604
0.00103726
0.000879092
0.000708351
0.000531142
0.00034162
0.000145946
-4.80703e-05
-0.000273299
-0.000536764
-0.000836911
-0.00119624
-0.00161763
-0.00204142
-0.00249031
-0.00291544
-0.00330176
-0.00397634
-0.00489781
-0.00570352
-0.00619932
-0.00646774
-0.00680262
-0.00707194
-0.00690181
-0.00650729
-0.00617918
-0.00586674
-0.00556539
-0.00538014
-0.00529128
-0.00526337
-0.00527591
-0.00532212
-0.00539011
-0.0054506
-0.00552285
-0.00559593
-0.00562954
-0.00566134
-0.00569002
-0.00568821
-0.00569385
-0.00572107
-0.00572772
-0.00571316
-0.00570554
-0.0057089
-0.00572492
-0.00575089
-0.00578922
-0.00583282
-0.00588419
-0.00594491
-0.00601154
-0.00608876
-0.00616706
-0.0062513
-0.00633775
-0.0064186
-0.00649762
0.00349561
0.00359065
0.00410103
0.00463793
0.00502372
0.00520824
0.00519919
0.00505199
0.0048363
0.00460831
0.00440142
0.0042301
0.00409676
0.00399486
0.00391294
0.00383904
0.00376383
0.00368136
0.00358934
0.00348768
0.00337879
0.00326539
0.00315088
0.00303714
0.00292585
0.00281677
0.00270952
0.00260284
0.00249547
0.00238706
0.00227592
0.00216296
0.0020458
0.00192644
0.00180375
0.00167983
0.00155173
0.00141862
0.0012819
0.00113808
0.000989766
0.000832949
0.000663738
0.000488171
0.000299982
0.000103728
-9.57486e-05
-0.000322115
-0.000584744
-0.000882236
-0.00122906
-0.00164002
-0.00205138
-0.00248783
-0.00292814
-0.00332211
-0.00394926
-0.00481472
-0.00559174
-0.00607801
-0.00633959
-0.00666374
-0.00694191
-0.0068098
-0.00644823
-0.00613936
-0.00584194
-0.00555592
-0.00537758
-0.00528986
-0.00526018
-0.0052701
-0.00531324
-0.00538018
-0.00544034
-0.00551176
-0.00558509
-0.00561939
-0.00565133
-0.00568099
-0.00568108
-0.00568789
-0.00571558
-0.00572306
-0.00570975
-0.00570347
-0.0057078
-0.00572439
-0.0057505
-0.00578891
-0.0058327
-0.00588424
-0.00594501
-0.00601157
-0.00608867
-0.00616694
-0.00625118
-0.00633778
-0.00641879
-0.00649776
0.00327133
0.00336617
0.00387554
0.00440758
0.00478612
0.00496328
0.00495017
0.00480548
0.00459994
0.00438888
0.00420403
0.0040575
0.00394906
0.00386945
0.00380541
0.00374466
0.00367852
0.00360234
0.00351494
0.00341742
0.00331281
0.00320416
0.00309463
0.00298572
0.00287873
0.00277306
0.00266842
0.00256332
0.00245712
0.00234922
0.00223873
0.00212615
0.00200976
0.00189046
0.00176798
0.00164386
0.00151606
0.00138291
0.00124566
0.00110148
0.000952569
0.000795976
0.000626786
0.000451822
0.000263642
6.63764e-05
-0.000137716
-0.000364738
-0.000626989
-0.000923108
-0.00125787
-0.00165906
-0.00205906
-0.00248245
-0.00293476
-0.0033357
-0.00391798
-0.0047258
-0.00547428
-0.0059542
-0.00620878
-0.00652003
-0.00680318
-0.0067054
-0.00637822
-0.0060936
-0.00581607
-0.00554563
-0.00537294
-0.0052843
-0.00525474
-0.00526505
-0.00530788
-0.00537382
-0.00543287
-0.00550275
-0.00557547
-0.00561001
-0.0056419
-0.00567223
-0.00567405
-0.00568201
-0.00570999
-0.00571813
-0.00570616
-0.00570122
-0.00570646
-0.00572353
-0.00575002
-0.00578869
-0.00583262
-0.00588431
-0.00594519
-0.00601186
-0.00608902
-0.00616727
-0.00625145
-0.00633793
-0.006419
-0.00649792
0.00314022
0.00325665
0.00378119
0.0043066
0.0046595
0.00479702
0.0047412
0.00456439
0.00434459
0.00413598
0.00396448
0.00383762
0.00375034
0.00368931
0.00363923
0.00358781
0.00352766
0.00345574
0.00337235
0.00327972
0.00318131
0.00308004
0.00297849
0.00287751
0.00277779
0.00267847
0.00257904
0.00247825
0.00237558
0.00227075
0.00216324
0.00205328
0.00194
0.00182321
0.00170324
0.00158075
0.00145515
0.00132376
0.00118784
0.00104519
0.000896581
0.000741915
0.000574099
0.00040086
0.000213767
1.68263e-05
-0.000189316
-0.000417646
-0.000676503
-0.000970231
-0.00129417
-0.00168228
-0.00207392
-0.00248286
-0.00293769
-0.00334609
-0.00388779
-0.00463747
-0.00535603
-0.00582899
-0.00607731
-0.00637521
-0.00666138
-0.00659968
-0.00630918
-0.0060477
-0.00578802
-0.0055326
-0.00536737
-0.00528086
-0.00525097
-0.0052596
-0.00529965
-0.00536393
-0.00542241
-0.0054911
-0.00556365
-0.00559884
-0.00563076
-0.00566194
-0.0056658
-0.00567507
-0.00570352
-0.00571257
-0.00570205
-0.00569856
-0.00570495
-0.0057227
-0.00574948
-0.00578831
-0.00583253
-0.00588437
-0.00594529
-0.00601185
-0.00608885
-0.00616709
-0.00625126
-0.00633797
-0.00641922
-0.00649809
0.00295407
0.00300784
0.00345885
0.00391974
0.00423181
0.0043605
0.00432869
0.0041987
0.00403446
0.00387912
0.00375249
0.00365883
0.0035916
0.00353909
0.00349037
0.00343816
0.00337875
0.00331084
0.00323519
0.00315315
0.00306689
0.00297771
0.00288726
0.00279555
0.00270328
0.00260946
0.00251425
0.00241658
0.00231659
0.00221398
0.00210871
0.0020007
0.00188948
0.00177461
0.00165613
0.0015347
0.00140965
0.0012794
0.00114376
0.00100202
0.000852803
0.000698922
0.00053169
0.000358856
0.000172487
-2.50374e-05
-0.000233137
-0.000462548
-0.0007177
-0.00101007
-0.00132451
-0.00169928
-0.00208461
-0.00247894
-0.00293072
-0.00334683
-0.00385437
-0.00454574
-0.00523045
-0.00569808
-0.0059423
-0.0062256
-0.00651281
-0.00648495
-0.00622955
-0.00599251
-0.00575448
-0.00551671
-0.00535928
-0.00527288
-0.00524246
-0.00525147
-0.00529077
-0.00535407
-0.00541193
-0.00547935
-0.00555161
-0.00558743
-0.00561948
-0.0056515
-0.0056574
-0.00566808
-0.00569694
-0.00570683
-0.00569785
-0.00569592
-0.00570333
-0.0057217
-0.00574886
-0.00578797
-0.00583233
-0.00588438
-0.00594547
-0.0060122
-0.00608931
-0.00616751
-0.00625171
-0.00633812
-0.00641945
-0.00649828
0.00483557
0.00475503
0.0042672
0.00376139
0.00339767