/*--------------------------------*- C++ -*----------------------------------*\
| =========                 |                                                 |
| \\      /  F ield         | OpenFOAM: The Open Source CFD Toolbox           |
|  \\    /   O peration     | Version:  2312                                  |
|   \\  /    A nd           | Website:  www.openfoam.com                      |
|    \\/     M anipulation  |                                                 |
\*---------------------------------------------------------------------------*/
FoamFile
{
    version     2.0;
    format      ascii;
    arch        "LSB;label=32;scalar=64";
    class       surfaceScalarField;
    location    "0.35";
    object      phi;
}
// * * * * * * * * * * * * * * * * * * * * * * * * * * * * * * * * * * * * * //

dimensions      [0 3 -1 0 0 0 0];

oriented        oriented;

internalField   nonuniform List<scalar> 
11020
(
3.87741e-06
-6.83911e-08
3.87941e-06
3.36082e-08
3.87837e-06
-3.07221e-08
3.87642e-06
5.4219e-08
3.87781e-06
-4.38442e-08
3.87873e-06
1.9047e-08
3.87733e-06
-1.23588e-08
3.87716e-06
2.33324e-08
3.87599e-06
-1.11575e-08
3.87633e-06
9.48412e-09
3.87606e-06
-1.18898e-08
3.87672e-06
2.29668e-09
3.87591e-06
-6.08535e-09
3.87569e-06
1.10558e-08
3.87484e-06
3.36291e-09
3.87455e-06
9.49373e-09
3.87347e-06
3.91106e-09
3.87301e-06
6.71732e-09
3.87208e-06
1.67235e-09
3.87173e-06
3.3665e-09
3.87097e-06
-4.69632e-10
3.87068e-06
1.25642e-09
3.87007e-06
-1.49505e-09
3.86976e-06
4.95938e-10
3.86919e-06
-1.0093e-09
3.86877e-06
8.27703e-10
3.86816e-06
8.73404e-11
3.86756e-06
1.59772e-09
3.8668e-06
1.23986e-09
3.86598e-06
2.45852e-09
3.86496e-06
2.37364e-09
3.86381e-06
3.51106e-09
3.86242e-06
3.84507e-09
3.86085e-06
5.13551e-09
3.85906e-06
5.77126e-09
3.85711e-06
6.99187e-09
3.85492e-06
7.70375e-09
3.8525e-06
9.02512e-09
3.84978e-06
1.02149e-08
1.19889e-08
3.84681e-06
4.18281e-06
-6.53461e-08
4.18907e-06
2.735e-08
4.18478e-06
-2.64303e-08
4.18723e-06
5.17743e-08
4.18468e-06
-4.13012e-08
4.18881e-06
1.49194e-08
4.18489e-06
-8.44077e-09
4.1876e-06
2.0625e-08
4.18384e-06
-7.39578e-09
4.18614e-06
7.17784e-09
4.18406e-06
-9.80622e-09
4.18626e-06
9.92406e-11
4.18349e-06
-3.31381e-09
4.18463e-06
9.91541e-09
4.18309e-06
4.89599e-09
4.18384e-06
8.74447e-09
4.18207e-06
5.68488e-09
4.18224e-06
6.54811e-09
4.18065e-06
3.26171e-09
4.18062e-06
3.39763e-09
4.17923e-06
9.22483e-10
4.1792e-06
1.28138e-09
4.17811e-06
-4.0532e-10
4.178e-06
6.09461e-10
4.17711e-06
-1.21671e-10
4.17681e-06
1.12497e-09
4.17594e-06
9.59812e-10
4.17535e-06
2.18412e-09
4.17427e-06
2.31971e-09
4.17328e-06
3.44934e-09
4.17186e-06
3.79867e-09
4.17047e-06
4.89893e-09
4.16882e-06
5.5004e-09
4.16737e-06
6.57566e-09
4.16587e-06
7.2724e-09
4.16461e-06
8.25834e-09
4.16333e-06
8.97883e-09
4.1624e-06
9.95709e-09
4.16178e-06
1.08366e-08
1.19011e-08
4.16187e-06
4.51644e-06
-6.17275e-08
4.52066e-06
2.31355e-08
4.51725e-06
-2.30249e-08
4.52078e-06
4.82454e-08
4.51687e-06
-3.73944e-08
4.51982e-06
1.19742e-08
4.51723e-06
-5.84609e-09
4.51977e-06
1.80843e-08
4.51662e-06
-4.24948e-09
4.51817e-06
5.62564e-09
4.51612e-06
-7.75904e-09
4.51748e-06
-1.2572e-09
4.51492e-06
-7.51899e-10
4.51574e-06
9.09409e-09
4.51484e-06
5.79344e-09
4.51545e-06
8.13705e-09
4.51424e-06
6.89959e-09
4.51433e-06
6.45781e-09
4.51292e-06
4.66837e-09
4.51268e-06
3.63283e-09
4.51137e-06
2.23468e-09
4.51108e-06
1.57019e-09
4.50992e-06
7.56746e-10
4.50947e-06
1.0612e-09
4.50843e-06
9.13183e-10
4.50781e-06
1.74598e-09
4.50681e-06
1.96273e-09
4.50606e-06
2.93515e-09
4.50497e-06
3.40802e-09
4.5039e-06
4.52512e-09
4.50241e-06
5.28086e-09
4.50091e-06
6.40425e-09
4.49924e-06
7.17043e-09
4.4978e-06
8.01306e-09
4.49642e-06
8.65722e-09
4.49527e-06
9.39967e-09
4.49417e-06
1.00803e-08
4.49333e-06
1.07995e-08
4.49272e-06
1.1444e-08
1.20114e-08
4.49261e-06
4.87778e-06
-5.8555e-08
4.88011e-06
2.07982e-08
4.8776e-06
-2.05096e-08
4.88145e-06
4.43957e-08
4.8772e-06
-3.31461e-08
4.87914e-06
1.0033e-08
4.87717e-06
-3.8765e-09
4.87966e-06
1.55994e-08
4.87713e-06
-1.72132e-09
4.87817e-06
4.58423e-09
4.87601e-06
-5.60278e-09
4.87646e-06
-1.70479e-09
4.87454e-06
1.16865e-09
4.87493e-06
8.70791e-09
4.87453e-06
6.19163e-09
4.87469e-06
7.97581e-09
4.87421e-06
7.3824e-09
4.87398e-06
6.68428e-09
4.87302e-06
5.62861e-09
4.87241e-06
4.2376e-09
4.87143e-06
3.21686e-09
4.87067e-06
2.33577e-09
4.86969e-06
1.73058e-09
4.86869e-06
2.06131e-09
4.86756e-06
2.0464e-09
4.86643e-06
2.8705e-09
4.86519e-06
3.21098e-09
4.8639e-06
4.22202e-09
4.86244e-06
4.86779e-09
4.861e-06
5.96815e-09
4.85953e-06
6.74284e-09
4.8582e-06
7.7398e-09
4.85692e-06
8.45007e-09
4.85576e-06
9.17664e-09
4.85468e-06
9.73223e-09
4.85379e-06
1.02904e-08
4.85309e-06
1.07775e-08
4.85268e-06
1.12167e-08
4.85255e-06
1.15706e-08
1.17919e-08
4.85277e-06
5.26751e-06
-5.54171e-08
5.26944e-06
1.88657e-08
5.26698e-06
-1.80511e-08
5.27113e-06
4.02437e-08
5.26672e-06
-2.8736e-08
5.26853e-06
8.23e-09
5.26642e-06
-1.77254e-09
5.26896e-06
1.30645e-08
5.26662e-06
6.17287e-10
5.26766e-06
3.54731e-09
5.26529e-06
-3.23405e-09
5.26534e-06
-1.76084e-09
5.26371e-06
2.80785e-09
5.26407e-06
8.34343e-09
5.26364e-06
6.62161e-09
5.2637e-06
7.91558e-09
5.26316e-06
7.91875e-09
5.26295e-06
6.89377e-09
5.26209e-06
6.49286e-09
5.26142e-06
4.90499e-09
5.26049e-06
4.15123e-09
5.25962e-06
3.20578e-09
5.25855e-06
2.80212e-09
5.25743e-06
3.18051e-09
5.2561e-06
3.37572e-09
5.25483e-06
4.13348e-09
5.25341e-06
4.63725e-09
5.25199e-06
5.63624e-09
5.25041e-06
6.45077e-09
5.24885e-06
7.53155e-09
5.24728e-06
8.30979e-09
5.24593e-06
9.09169e-09
5.24473e-06
9.6485e-09
5.24369e-06
1.02174e-08
5.24277e-06
1.06543e-08
5.24204e-06
1.10166e-08
5.24149e-06
1.13253e-08
5.24117e-06
1.15445e-08
5.24107e-06
1.16704e-08
1.16781e-08
5.24118e-06
5.68817e-06
-5.21273e-08
5.69019e-06
1.68458e-08
5.68756e-06
-1.54209e-08
5.69184e-06
3.59581e-08
5.68742e-06
-2.43126e-08
5.68924e-06
6.4122e-09
5.68704e-06
4.2613e-10
5.68936e-06
1.07467e-08
5.68732e-06
2.65663e-09
5.68805e-06
2.81993e-09
5.68606e-06
-1.24621e-09
5.68545e-06
-1.1513e-09
5.68455e-06
3.70868e-09
5.68452e-06
8.36743e-09
5.68407e-06
7.07672e-09
5.68394e-06
8.04038e-09
5.68344e-06
8.41868e-09
5.68308e-06
7.26073e-09
5.68237e-06
7.2007e-09
5.68157e-06
5.70021e-09
5.68065e-06
5.07369e-09
5.67962e-06
4.2361e-09
5.67846e-06
3.95881e-09
5.67725e-06
4.39534e-09
5.67585e-06
4.77134e-09
5.67446e-06
5.52679e-09
5.67284e-06
6.26132e-09
5.67121e-06
7.26239e-09
5.66954e-06
8.11909e-09
5.66806e-06
9.01117e-09
5.66669e-06
9.68399e-09
5.66545e-06
1.03261e-08
5.66431e-06
1.07946e-08
5.6633e-06
1.12243e-08
5.66245e-06
1.15097e-08
5.66176e-06
1.17014e-08
5.66129e-06
1.17978e-08
5.66106e-06
1.17714e-08
5.66108e-06
1.16553e-08
1.14191e-08
5.66134e-06
6.14239e-06
-4.86466e-08
6.14458e-06
1.46544e-08
6.14174e-06
-1.25815e-08
6.14615e-06
3.15531e-08
6.14166e-06
-1.98295e-08
6.14354e-06
4.53699e-09
6.14126e-06
2.70499e-09
6.14342e-06
8.58577e-09
6.14151e-06
4.5648e-09
6.14206e-06
2.27413e-09
6.14032e-06
4.93867e-10
6.13943e-06
-2.67748e-10
6.13862e-06
4.52804e-09
6.1386e-06
8.37999e-09
6.13797e-06
7.70682e-09
6.13777e-06
8.24349e-09
6.13723e-06
8.95604e-09
6.13678e-06
7.71407e-09
6.1361e-06
7.87934e-09
6.1353e-06
6.49857e-09
6.13428e-06
6.09866e-09
6.13319e-06
5.32811e-09
6.13187e-06
5.27459e-09
6.13058e-06
5.67983e-09
6.12911e-06
6.24981e-09
6.12758e-06
7.0524e-09
6.12589e-06
7.95193e-09
6.12426e-06
8.88888e-09
6.12269e-06
9.68813e-09
6.1213e-06
1.04026e-08
6.12001e-06
1.09761e-08
6.11884e-06
1.14974e-08
6.11775e-06
1.18837e-08
6.11677e-06
1.22045e-08
6.11591e-06
1.23684e-08
6.11521e-06
1.23989e-08
6.11471e-06
1.23008e-08
6.11443e-06
1.20555e-08
6.11438e-06
1.17001e-08
1.11245e-08
6.11468e-06
6.6329e-06
-4.49897e-08
6.63526e-06
1.22981e-08
6.63227e-06
-9.58989e-09
6.63664e-06
2.71781e-08
6.63225e-06
-1.54388e-08
6.63401e-06
2.78254e-09
6.63189e-06
4.82496e-09
6.63367e-06
6.80335e-09
6.63211e-06
6.12114e-09
6.63223e-06
2.155e-09
6.63079e-06
1.93892e-09
6.62981e-06
7.10333e-10
6.62879e-06
5.54624e-09
6.6289e-06
8.26775e-09
6.62811e-06
8.50198e-09
6.62788e-06
8.46906e-09
6.62725e-06
9.5947e-09
6.6268e-06
8.16007e-09
6.626e-06
8.67538e-09
6.62527e-06
7.23419e-09
6.62408e-06
7.28289e-09
6.623e-06
6.4125e-09
6.62152e-06
6.74844e-09
6.62021e-06
6.99849e-09
6.61852e-06
7.93105e-09
6.6169e-06
8.67595e-09
6.61519e-06
9.66702e-09
6.61369e-06
1.03805e-08
6.61226e-06
1.11219e-08
6.61097e-06
1.16916e-08
6.60974e-06
1.22122e-08
6.60862e-06
1.26134e-08
6.60754e-06
1.29656e-08
6.60659e-06
1.31542e-08
6.60571e-06
1.32445e-08
6.605e-06
1.3111e-08
6.60443e-06
1.28721e-08
6.60405e-06
1.24338e-08
6.60368e-06
1.20667e-08
1.13157e-08
6.60349e-06
7.16261e-06
-4.11653e-08
7.16512e-06
9.78815e-09
7.16198e-06
-6.45865e-09
7.16631e-06
2.28515e-08
7.16202e-06
-1.11487e-08
7.16364e-06
1.16538e-09
7.16167e-06
6.79043e-09
7.1631e-06
5.37403e-09
7.16191e-06
7.31055e-09
7.16166e-06
2.40839e-09
7.16036e-06
3.23772e-09
7.15937e-06
1.70277e-09
7.15832e-06
6.58973e-09
7.15827e-06
8.32331e-09
7.15751e-06
9.26145e-09
7.15714e-06
8.83585e-09
7.15648e-06
1.02582e-08
7.15592e-06
8.71998e-09
7.15508e-06
9.51384e-09
7.15428e-06
8.03739e-09
7.15301e-06
8.54646e-09
7.1518e-06
7.62484e-09
7.15014e-06
8.40567e-09
7.14852e-06
8.61852e-09
7.14676e-06
9.69052e-09
7.14518e-06
1.02591e-08
7.14374e-06
1.1109e-08
7.14249e-06
1.16347e-08
7.14128e-06
1.23319e-08
7.14013e-06
1.28324e-08
7.13897e-06
1.33782e-08
7.13783e-06
1.37519e-08
7.13665e-06
1.41502e-08
7.13549e-06
1.43075e-08
7.13434e-06
1.43988e-08
7.13325e-06
1.4202e-08
7.1322e-06
1.39232e-08
7.13136e-06
1.3268e-08
7.13126e-06
1.2166e-08
1.06135e-08
7.13196e-06
7.73464e-06
-3.72055e-08
7.73726e-06
7.17353e-09
7.73409e-06
-3.29277e-09
7.73816e-06
1.87816e-08
7.73425e-06
-7.23162e-09
7.73537e-06
3.70277e-11
7.73414e-06
8.02769e-09
7.73433e-06
5.18141e-09
7.73437e-06
7.26762e-09
7.73317e-06
3.61423e-09
7.73241e-06
3.99111e-09
7.73099e-06
3.12601e-09
7.73034e-06
7.24425e-09
7.7298e-06
8.85427e-09
7.72933e-06
9.73241e-09
7.72857e-06
9.60036e-09
7.72811e-06
1.07203e-08
7.72724e-06
9.5903e-09
7.72652e-06
1.02299e-08
7.72545e-06
9.10915e-09
7.72425e-06
9.74584e-09
7.72267e-06
9.1999e-09
7.72106e-06
1.00243e-08
7.71925e-06
1.04264e-08
7.71771e-06
1.12239e-08
7.71618e-06
1.17971e-08
7.71488e-06
1.24079e-08
7.71356e-06
1.29507e-08
7.71246e-06
1.34293e-08
7.71148e-06
1.38138e-08
7.71081e-06
1.40556e-08
7.71048e-06
1.40735e-08
7.7106e-06
1.40382e-08
7.71106e-06
1.38442e-08
7.71183e-06
1.36288e-08
7.71275e-06
1.32808e-08
7.71375e-06
1.29261e-08
7.71461e-06
1.24018e-08
7.71481e-06
1.19727e-08
1.11051e-08
7.71432e-06
8.3524e-06
-3.31412e-08
8.35507e-06
4.49733e-09
8.35193e-06
-1.49663e-10
8.35566e-06
1.50514e-08
8.35222e-06
-3.79583e-09
8.3527e-06
-4.37498e-10
8.35249e-06
8.2377e-09
8.35166e-06
6.0129e-09
8.35195e-06
6.97024e-09
8.35055e-06
5.02328e-09
8.34994e-06
4.59125e-09
8.34835e-06
4.71727e-09
8.34783e-06
7.77174e-09
8.34704e-06
9.64354e-09
8.34666e-06
1.01138e-08
8.34573e-06
1.05222e-08
8.34528e-06
1.1176e-08
8.34426e-06
1.06122e-08
8.34345e-06
1.10366e-08
8.34217e-06
1.03919e-08
8.34084e-06
1.10687e-08
8.33905e-06
1.09888e-08
8.33754e-06
1.15414e-08
8.33588e-06
1.20855e-08
8.33453e-06
1.25723e-08
8.3331e-06
1.32246e-08
8.33192e-06
1.35948e-08
8.33076e-06
1.41083e-08
8.32986e-06
1.43318e-08
8.32913e-06
1.45372e-08
8.32882e-06
1.43667e-08
8.32872e-06
1.41771e-08
8.32887e-06
1.38881e-08
8.32911e-06
1.35978e-08
8.32941e-06
1.33345e-08
8.32975e-06
1.29368e-08
8.33016e-06
1.25188e-08
8.33059e-06
1.1967e-08
8.33119e-06
1.13792e-08
1.0582e-08
8.33171e-06
9.01954e-06
-2.90337e-08
9.02218e-06
1.85281e-09
9.01923e-06
2.80059e-09
9.02232e-06
1.19604e-08
9.01975e-06
-1.21908e-09
9.01898e-06
3.26943e-10
9.01948e-06
7.73818e-09
9.01886e-06
6.63167e-09
9.01866e-06
7.17001e-09
9.0176e-06
6.08895e-09
9.01672e-06
5.47352e-09
9.01537e-06
6.06434e-09
9.01458e-06
8.55972e-09
9.01386e-06
1.03634e-08
9.01324e-06
1.07318e-08
9.01237e-06
1.13987e-08
9.01166e-06
1.18792e-08
9.01068e-06
1.16011e-08
9.00957e-06
1.21465e-08
9.00821e-06
1.17472e-08
9.00677e-06
1.25042e-08
9.00508e-06
1.26822e-08
9.00364e-06
1.2983e-08
9.00217e-06
1.35524e-08
9.00084e-06
1.39065e-08
8.99957e-06
1.44909e-08
8.99851e-06
1.46543e-08
8.9977e-06
1.49224e-08
8.99719e-06
1.48378e-08
8.99696e-06
1.47685e-08
8.99683e-06
1.44975e-08
8.99679e-06
1.42151e-08
8.99671e-06
1.39733e-08
8.99668e-06
1.36265e-08
8.99673e-06
1.32807e-08
8.99687e-06
1.27953e-08
8.99704e-06
1.23571e-08
8.99719e-06
1.18133e-08
8.99728e-06
1.12909e-08
1.07573e-08
8.9971e-06
9.74001e-06
-2.49366e-08
9.74254e-06
-6.80131e-10
9.73997e-06
5.3691e-09
9.74223e-06
9.69733e-09
9.74081e-06
2.01991e-10
9.73928e-06
1.85526e-09
9.73954e-06
7.48238e-09
9.73919e-06
6.9859e-09
9.73879e-06
7.56606e-09
9.73778e-06
7.09464e-09
9.73678e-06
6.47217e-09
9.73551e-06
7.34133e-09
9.73461e-06
9.45498e-09
9.73383e-06
1.1147e-08
9.73306e-06
1.1496e-08
9.73217e-06
1.22949e-08
9.73125e-06
1.27929e-08
9.73014e-06
1.27199e-08
9.72884e-06
1.34396e-08
9.72739e-06
1.31977e-08
9.72606e-06
1.38374e-08
9.72455e-06
1.41945e-08
9.72317e-06
1.43632e-08
9.72196e-06
1.47547e-08
9.7209e-06
1.4967e-08
9.72005e-06
1.53427e-08
9.71936e-06
1.53482e-08
9.71889e-06
1.53937e-08
9.7184e-06
1.53246e-08
9.71802e-06
1.51521e-08
9.71766e-06
1.48555e-08
9.71737e-06
1.44993e-08
9.71719e-06
1.41535e-08
9.71709e-06
1.37351e-08
9.71704e-06
1.33237e-08
9.717e-06
1.28402e-08
9.71698e-06
1.23709e-08
9.71695e-06
1.18473e-08
9.71692e-06
1.13176e-08
1.0745e-08
9.71694e-06
1.05181e-05
-2.09575e-08
1.05204e-05
-2.94866e-09
1.05191e-05
6.62174e-09
1.05198e-05
9.00632e-09
1.05188e-05
1.21151e-09
1.05173e-05
3.32007e-09
1.05171e-05
7.70384e-09
1.05169e-05
7.2245e-09
1.05165e-05
7.95271e-09
1.05154e-05
8.132e-09
1.05144e-05
7.53357e-09
1.05131e-05
8.58853e-09
1.05122e-05
1.04365e-08
1.05113e-05
1.19874e-08
1.05104e-05
1.23924e-08
1.05094e-05
1.3298e-08
1.05083e-05
1.38868e-08
1.05071e-05
1.39652e-08
1.05058e-05
1.46877e-08
1.05044e-05
1.46346e-08
1.05031e-05
1.50833e-08
1.05018e-05
1.54997e-08
1.05005e-05
1.56779e-08
1.04994e-05
1.58901e-08
1.04983e-05
1.60635e-08
1.04974e-05
1.62682e-08
1.04966e-05
1.61288e-08
1.04961e-05
1.58715e-08
1.04959e-05
1.55739e-08
1.04957e-05
1.53285e-08
1.04955e-05
1.50491e-08
1.04953e-05
1.47241e-08
1.04951e-05
1.43347e-08
1.04949e-05
1.38789e-08
1.04948e-05
1.34227e-08
1.04948e-05
1.29106e-08
1.04947e-05
1.24071e-08
1.04947e-05
1.18448e-08
1.04948e-05
1.12849e-08
1.072e-08
1.04948e-05
1.13584e-05
-1.71536e-08
1.13603e-05
-4.88512e-09
1.13598e-05
7.11424e-09
1.13597e-05
9.12258e-09
1.13587e-05
2.25401e-09
1.13576e-05
4.41307e-09
1.1357e-05
8.2474e-09
1.13567e-05
7.58811e-09
1.13562e-05
8.37979e-09
1.13553e-05
9.07907e-09
1.13541e-05
8.68086e-09
1.13529e-05
9.78827e-09
1.13518e-05
1.15528e-08
1.13509e-05
1.29267e-08
1.13498e-05
1.34306e-08
1.13488e-05
1.43602e-08
1.13476e-05
1.50776e-08
1.13463e-05
1.5278e-08
1.13451e-05
1.58572e-08
1.13438e-05
1.59535e-08
1.13425e-05
1.6354e-08
1.13414e-05
1.66222e-08
1.13402e-05
1.68936e-08
1.13392e-05
1.68871e-08
1.13383e-05
1.68924e-08
1.13377e-05
1.68829e-08
1.13372e-05
1.6653e-08
1.13367e-05
1.63648e-08
1.13363e-05
1.60028e-08
1.13359e-05
1.5719e-08
1.13356e-05
1.5348e-08
1.13353e-05
1.49719e-08
1.13352e-05
1.45051e-08
1.1335e-05
1.40239e-08
1.1335e-05
1.34999e-08
1.13349e-05
1.29673e-08
1.13349e-05
1.23978e-08
1.13349e-05
1.18201e-08
1.1335e-05
1.12308e-08
1.06205e-08
1.13351e-05
1.22658e-05
-1.36141e-08
1.22673e-05
-6.39991e-09
1.22672e-05
7.19227e-09
1.22669e-05
9.49653e-09
1.22657e-05
3.37523e-09
1.22647e-05
5.43587e-09
1.22641e-05
8.82427e-09
1.22636e-05
8.13665e-09
1.2263e-05
8.95561e-09
1.22621e-05
1.00093e-08
1.2261e-05
9.80267e-09
1.22598e-05
1.09582e-08
1.22586e-05
1.27445e-08
1.22575e-05
1.39978e-08
1.22564e-05
1.45586e-08
1.22553e-05
1.54637e-08
1.22541e-05
1.62554e-08
1.22528e-05
1.66276e-08
1.22516e-05
1.7033e-08
1.22504e-05
1.71045e-08
1.22492e-05
1.75988e-08
1.22482e-05
1.76093e-08
1.22473e-05
1.78541e-08
1.22464e-05
1.77324e-08
1.22457e-05
1.75755e-08
1.22451e-05
1.7501e-08
1.22446e-05
1.7206e-08
1.2244e-05
1.69258e-08
1.22436e-05
1.64346e-08
1.22432e-05
1.60958e-08
1.22429e-05
1.56243e-08
1.22427e-05
1.52044e-08
1.22425e-05
1.46542e-08
1.22424e-05
1.41416e-08
1.22424e-05
1.35537e-08
1.22423e-05
1.29873e-08
1.22424e-05
1.23752e-08
1.22424e-05
1.17786e-08
1.22425e-05
1.1165e-08
1.06045e-08
1.22425e-05
1.32457e-05
-1.04076e-08
1.32467e-05
-7.42077e-09
1.3247e-05
6.95209e-09
1.32466e-05
9.92148e-09
1.32454e-05
4.56595e-09
1.32443e-05
6.52379e-09
1.32436e-05
9.46193e-09
1.3243e-05
8.74713e-09
1.32423e-05
9.64664e-09
1.32413e-05
1.10133e-08
1.32402e-05
1.09359e-08
1.32391e-05
1.20851e-08
1.32379e-05
1.39346e-08
1.32367e-05
1.52223e-08
1.32354e-05
1.57802e-08
1.32343e-05
1.65875e-08
1.32332e-05
1.73881e-08
1.32319e-05
1.7918e-08
1.32307e-05
1.82675e-08
1.32297e-05
1.80964e-08
1.32286e-05
1.87005e-08
1.32276e-05
1.85768e-08
1.32268e-05
1.86851e-08
1.32259e-05
1.85682e-08
1.32253e-05
1.82237e-08
1.32247e-05
1.81021e-08
1.32242e-05
1.76576e-08
1.32238e-05
1.73905e-08
1.32234e-05
1.68133e-08
1.32231e-05
1.64238e-08
1.32228e-05
1.58543e-08
1.32227e-05
1.53825e-08
1.32225e-05
1.47792e-08
1.32225e-05
1.42173e-08
1.32224e-05
1.35862e-08
1.32224e-05
1.29791e-08
1.32225e-05
1.23452e-08
1.32225e-05
1.17262e-08
1.32226e-05
1.11081e-08
1.04806e-08
1.32227e-05
1.4304e-05
-7.62703e-09
1.43042e-05
-7.7106e-09
1.43049e-05
6.33908e-09
1.43045e-05
1.02697e-08
1.43033e-05
5.77797e-09
1.43022e-05
7.61696e-09
1.43013e-05
1.03239e-08
1.43007e-05
9.4318e-09
1.43e-05
1.03369e-08
1.42989e-05
1.21104e-08
1.42976e-05
1.21803e-08
1.42965e-05
1.31655e-08
1.42954e-05
1.50684e-08
1.42941e-05
1.64869e-08
1.42928e-05
1.71012e-08
1.42916e-05
1.77703e-08
1.42906e-05
1.84604e-08
1.42894e-05
1.90597e-08
1.42882e-05
1.95268e-08
1.42872e-05
1.90577e-08
1.42863e-05
1.96073e-08
1.42853e-05
1.95418e-08
1.42846e-05
1.94039e-08
1.42839e-05
1.9318e-08
1.42833e-05
1.88174e-08
1.42827e-05
1.86477e-08
1.42823e-05
1.80853e-08
1.42819e-05
1.77726e-08
1.42816e-05
1.71374e-08
1.42813e-05
1.66749e-08
1.42811e-05
1.60503e-08
1.4281e-05
1.55021e-08
1.42809e-05
1.48644e-08
1.42809e-05
1.42424e-08
1.42809e-05
1.35908e-08
1.4281e-05
1.29383e-08
1.4281e-05
1.2293e-08
1.42811e-05
1.16418e-08
1.42812e-05
1.10166e-08
1.03711e-08
1.42813e-05
1.54467e-05
-5.32394e-09
1.54457e-05
-6.68196e-09
1.5447e-05
5.01653e-09
1.5447e-05
1.02871e-08
1.54457e-05
7.06091e-09
1.54447e-05
8.64022e-09
1.54436e-05
1.13755e-08
1.54427e-05
1.03525e-08
1.5442e-05
1.0984e-08
1.5441e-05
1.31634e-08
1.54396e-05
1.35764e-08
1.54384e-05
1.43154e-08
1.54374e-05
1.61182e-08
1.54362e-05
1.7717e-08
1.54348e-05
1.84539e-08
1.54336e-05
1.89896e-08
1.54325e-05
1.95525e-08
1.54315e-05
2.00594e-08
1.54303e-05
2.07008e-08
1.54293e-05
2.0079e-08
1.54286e-05
2.03315e-08
1.54277e-05
2.04238e-08
1.5427e-05
2.0073e-08
1.54264e-05
1.9965e-08
1.54259e-05
1.93379e-08
1.54254e-05
1.90904e-08
1.5425e-05
1.8462e-08
1.54248e-05
1.80544e-08
1.54245e-05
1.74008e-08
1.54243e-05
1.68483e-08
1.54242e-05
1.62001e-08
1.54241e-05
1.55649e-08
1.54241e-05
1.49069e-08
1.54241e-05
1.42225e-08
1.54241e-05
1.35595e-08
1.54242e-05
1.28648e-08
1.54243e-05
1.22128e-08
1.54244e-05
1.15348e-08
1.54245e-05
1.09072e-08
1.02478e-08
1.54246e-05
1.66806e-05
-3.4919e-09
1.66791e-05
-5.15672e-09
1.66802e-05
3.86782e-09
1.66805e-05
1.00322e-08
1.66793e-05
8.31512e-09
1.66783e-05
9.58339e-09
1.66772e-05
1.24356e-08
1.6676e-05
1.15952e-08
1.66752e-05
1.17665e-08
1.66743e-05
1.40953e-08
1.66729e-05
1.50115e-08
1.66716e-05
1.55957e-08
1.66705e-05
1.7153e-08
1.66694e-05
1.88359e-08
1.66681e-05
1.9758e-08
1.66669e-05
2.02054e-08
1.66658e-05
2.06654e-08
1.66649e-05
2.09639e-08
1.66639e-05
2.16922e-08
1.66628e-05
2.11502e-08
1.66622e-05
2.09844e-08
1.66614e-05
2.11526e-08
1.66608e-05
2.06811e-08
1.66603e-05
2.04908e-08
1.66599e-05
1.97917e-08
1.66595e-05
1.94229e-08
1.66592e-05
1.87748e-08
1.6659e-05
1.8251e-08
1.66588e-05
1.7592e-08
1.66587e-05
1.69457e-08
1.66586e-05
1.62833e-08
1.66586e-05
1.55746e-08
1.66586e-05
1.48972e-08
1.66587e-05
1.41619e-08
1.66588e-05
1.34839e-08
1.66589e-05
1.27601e-08
1.6659e-05
1.20988e-08
1.66591e-05
1.14061e-08
1.66593e-05
1.07731e-08
1.01076e-08
1.66594e-05
1.80129e-05
-2.01238e-09
1.80114e-05
-3.63703e-09
1.80117e-05
3.53006e-09
1.80122e-05
9.55406e-09
1.80113e-05
9.2454e-09
1.80104e-05
1.04959e-08
1.80095e-05
1.33548e-08
1.8008e-05
1.30809e-08
1.80069e-05
1.28559e-08
1.8006e-05
1.49389e-08
1.80047e-05
1.6362e-08
1.80033e-05
1.69753e-08
1.80022e-05
1.82354e-08
1.80012e-05
1.98719e-08
1.8e-05
2.09397e-08
1.79989e-05
2.13465e-08
1.79978e-05
2.17637e-08
1.79969e-05
2.18548e-08
1.79961e-05
2.24735e-08
1.79951e-05
2.21565e-08
1.79944e-05
2.16371e-08
1.79939e-05
2.1703e-08
1.79934e-05
2.12042e-08
1.7993e-05
2.08928e-08
1.79926e-05
2.01698e-08
1.79924e-05
1.96536e-08
1.79921e-05
1.90023e-08
1.7992e-05
1.83708e-08
1.79919e-05
1.77001e-08
1.79919e-05
1.69758e-08
1.79919e-05
1.62917e-08
1.79919e-05
1.55334e-08
1.7992e-05
1.48321e-08
1.79921e-05
1.40657e-08
1.79922e-05
1.33657e-08
1.79923e-05
1.26267e-08
1.79925e-05
1.19511e-08
1.79926e-05
1.12545e-08
1.79928e-05
1.0613e-08
9.94979e-09
1.79929e-05
1.94516e-05
-8.88878e-10
1.945e-05
-2.09384e-09
1.94499e-05
3.68044e-09
1.94502e-05
9.21311e-09
1.94496e-05
9.89483e-09
1.94487e-05
1.13491e-08
1.94479e-05
1.41336e-08
1.94465e-05
1.45569e-08
1.94451e-05
1.42505e-08
1.94441e-05
1.58791e-08
1.94429e-05
1.75575e-08
1.94415e-05
1.83547e-08
1.94404e-05
1.93775e-08
1.94394e-05
2.08424e-08
1.94384e-05
2.19996e-08
1.94373e-05
2.23974e-08
1.94363e-05
2.27617e-08
1.94354e-05
2.27325e-08
1.94348e-05
2.30971e-08
1.9434e-05
2.29869e-08
1.94333e-05
2.22903e-08
1.94329e-05
2.21307e-08
1.94325e-05
2.1605e-08
1.94322e-05
2.11754e-08
1.94319e-05
2.04556e-08
1.94318e-05
1.98051e-08
1.94317e-05
1.91322e-08
1.94316e-05
1.84171e-08
1.94316e-05
1.77208e-08
1.94316e-05
1.69429e-08
1.94317e-05
1.62245e-08
1.94318e-05
1.54371e-08
1.94319e-05
1.47079e-08
1.9432e-05
1.39284e-08
1.94322e-05
1.32049e-08
1.94324e-05
1.24606e-08
1.94326e-05
1.17694e-08
1.94327e-05
1.10755e-08
1.94329e-05
1.04267e-08
9.77033e-09
1.94331e-05
2.1005e-05
-7.25709e-11
2.10034e-05
-5.24403e-10
2.10031e-05
3.99414e-09
2.10031e-05
9.22326e-09
2.10025e-05
1.05053e-08
2.10018e-05
1.20431e-08
2.10011e-05
1.47779e-08
2.09999e-05
1.58406e-08
2.09983e-05
1.58136e-08
2.09972e-05
1.69892e-08
2.09961e-05
1.86862e-08
2.09948e-05
1.96593e-08
2.09936e-05
2.05259e-08
2.09927e-05
2.17833e-08
2.09917e-05
2.29171e-08
2.09908e-05
2.33394e-08
2.09899e-05
2.36373e-08
2.09891e-05
2.35622e-08
2.09886e-05
2.36268e-08
2.0988e-05
2.35889e-08
2.09874e-05
2.28811e-08
2.0987e-05
2.24681e-08
2.09868e-05
2.18835e-08
2.09866e-05
2.13336e-08
2.09864e-05
2.0617e-08
2.09864e-05
1.98725e-08
2.09863e-05
1.916e-08
2.09864e-05
1.83888e-08
2.09864e-05
1.76557e-08
2.09865e-05
1.68474e-08
2.09867e-05
1.60899e-08
2.09868e-05
1.5286e-08
2.0987e-05
1.45283e-08
2.09872e-05
1.37451e-08
2.09874e-05
1.3003e-08
2.09876e-05
1.22596e-08
2.09878e-05
1.15571e-08
2.0988e-05
1.08685e-08
2.09882e-05
1.02161e-08
9.56806e-09
2.09884e-05
2.26823e-05
5.2134e-10
2.26809e-05
9.092e-10
2.26803e-05
4.55359e-09
2.26802e-05
9.39006e-09
2.26794e-05
1.12255e-08
2.26788e-05
1.27214e-08
2.26783e-05
1.5296e-08
2.26772e-05
1.68846e-08
2.26757e-05
1.73139e-08
2.26745e-05
1.82369e-08
2.26734e-05
1.97872e-08
2.26721e-05
2.08898e-08
2.2671e-05
2.16437e-08
2.26701e-05
2.27017e-08
2.26693e-05
2.36943e-08
2.26685e-05
2.41447e-08
2.26678e-05
2.43698e-08
2.26671e-05
2.42622e-08
2.26666e-05
2.41021e-08
2.26662e-05
2.39827e-08
2.26658e-05
2.33323e-08
2.26655e-05
2.27276e-08
2.26653e-05
2.20469e-08
2.26653e-05
2.13801e-08
2.26653e-05
2.0648e-08
2.26653e-05
1.9848e-08
2.26654e-05
1.90886e-08
2.26655e-05
1.82804e-08
2.26656e-05
1.75068e-08
2.26658e-05
1.66813e-08
2.2666e-05
1.58889e-08
2.26662e-05
1.50753e-08
2.26664e-05
1.4295e-08
2.26667e-05
1.3512e-08
2.26669e-05
1.27591e-08
2.26671e-05
1.202e-08
2.26674e-05
1.13129e-08
2.26676e-05
1.06306e-08
2.26679e-05
9.97951e-09
9.34138e-09
2.26681e-05
2.44935e-05
9.72808e-10
2.44923e-05
2.11171e-09
2.44915e-05
5.33325e-09
2.44912e-05
9.69976e-09
2.44904e-05
1.19883e-08
2.44896e-05
1.35135e-08
2.44891e-05
1.5805e-08
2.44884e-05
1.76542e-08
2.44871e-05
1.86059e-08
2.44858e-05
1.94739e-08
2.44848e-05
2.0877e-08
2.44836e-05
2.20623e-08
2.44825e-05
2.26924e-08
2.44817e-05
2.35716e-08
2.4481e-05
2.43736e-08
2.44804e-05
2.47566e-08
2.44798e-05
2.49518e-08
2.44793e-05
2.47887e-08
2.44789e-05
2.4497e-08
2.44786e-05
2.42015e-08
2.44784e-05
2.35933e-08
2.44782e-05
2.28642e-08
2.44782e-05
2.20984e-08
2.44783e-05
2.13258e-08
2.44783e-05
2.05536e-08
2.44785e-05
1.97245e-08
2.44786e-05
1.89219e-08
2.44788e-05
1.80905e-08
2.44791e-05
1.72789e-08
2.44793e-05
1.64439e-08
2.44796e-05
1.56255e-08
2.44798e-05
1.48074e-08
2.44801e-05
1.40118e-08
2.44804e-05
1.32314e-08
2.44807e-05
1.24747e-08
2.44809e-05
1.17425e-08
2.44812e-05
1.10379e-08
2.44815e-05
1.03649e-08
2.44817e-05
9.72257e-09
9.08765e-09
2.4482e-05
2.64492e-05
1.31612e-09
2.64482e-05
3.11121e-09
2.64474e-05
6.18581e-09
2.64469e-05
1.01897e-08
2.64461e-05
1.27442e-08
2.64452e-05
1.4408e-08
2.64446e-05
1.64188e-08
2.6444e-05
1.82567e-08
2.6443e-05
1.95798e-08
2.64419e-05
2.06038e-08
2.64409e-05
2.18562e-08
2.64399e-05
2.31365e-08
2.64389e-05
2.36945e-08
2.64381e-05
2.43349e-08
2.64375e-05
2.49721e-08
2.6437e-05
2.52007e-08
2.64367e-05
2.53222e-08
2.64364e-05
2.5108e-08
2.64361e-05
2.4748e-08
2.6436e-05
2.428e-08
2.6436e-05
2.36409e-08
2.6436e-05
2.28543e-08
2.64361e-05
2.20238e-08
2.64362e-05
2.11826e-08
2.64364e-05
2.03523e-08
2.64366e-05
1.95015e-08
2.64369e-05
1.86566e-08
2.64372e-05
1.78103e-08
2.64375e-05
1.69699e-08
2.64378e-05
1.61317e-08
2.64381e-05
1.52978e-08
2.64385e-05
1.44799e-08
2.64388e-05
1.36776e-08
2.64391e-05
1.29026e-08
2.64394e-05
1.21489e-08
2.64398e-05
1.14266e-08
2.64401e-05
1.07296e-08
2.64404e-05
1.00666e-08
2.64407e-05
9.43167e-09
8.81813e-09
2.64409e-05
2.85611e-05
1.58252e-09
2.85602e-05
3.9366e-09
2.85594e-05
7.02922e-09
2.85588e-05
1.08085e-08
2.8558e-05
1.35265e-08
2.85571e-05
1.53206e-08
2.85564e-05
1.71316e-08
2.85558e-05
1.88236e-08
2.85551e-05
2.02957e-08
2.85542e-05
2.15213e-08
2.85533e-05
2.26783e-08
2.85525e-05
2.40012e-08
2.85516e-05
2.45983e-08
2.85509e-05
2.49702e-08
2.85505e-05
2.5442e-08
2.85502e-05
2.5491e-08
2.855e-05
2.54969e-08
2.85499e-05
2.52093e-08
2.85499e-05
2.47855e-08
2.85499e-05
2.42131e-08
2.85501e-05
2.35016e-08
2.85502e-05
2.26849e-08
2.85505e-05
2.18062e-08
2.85507e-05
2.09332e-08
2.8551e-05
2.00496e-08
2.85513e-05
1.91798e-08
2.85517e-05
1.82996e-08
2.8552e-05
1.74428e-08
2.85524e-05
1.65826e-08
2.85528e-05
1.57442e-08
2.85532e-05
1.49055e-08
2.85536e-05
1.40933e-08
2.8554e-05
1.32944e-08
2.85544e-05
1.25294e-08
2.85547e-05
1.17861e-08
2.85551e-05
1.10777e-08
2.85554e-05
1.03948e-08
2.85557e-05
9.74668e-09
2.8556e-05
9.12647e-09
8.55381e-09
2.85563e-05
3.08415e-05
1.79261e-09
3.08408e-05
4.60073e-09
3.084e-05
7.83314e-09
3.08393e-05
1.15034e-08
3.08385e-05
1.43276e-08
3.08376e-05
1.62033e-08
3.08369e-05
1.78813e-08
3.08363e-05
1.94277e-08
3.08357e-05
2.08841e-08
3.0835e-05
2.22503e-08
3.08343e-05
2.33315e-08
3.08338e-05
2.45289e-08
3.08331e-05
2.52546e-08
3.08327e-05
2.54195e-08
3.08324e-05
2.57045e-08
3.08323e-05
2.56239e-08
3.08323e-05
2.54446e-08
3.08325e-05
2.50698e-08
3.08327e-05
2.45622e-08
3.08329e-05
2.39554e-08
3.08333e-05
2.31889e-08
3.08336e-05
2.23628e-08
3.08339e-05
2.14537e-08
3.08343e-05
2.05672e-08
3.08347e-05
1.96484e-08
3.08351e-05
1.8758e-08
3.08356e-05
1.78514e-08
3.0836e-05
1.69799e-08
3.08365e-05
1.61099e-08
3.0837e-05
1.52712e-08
3.08374e-05
1.44391e-08
3.08379e-05
1.36361e-08
3.08383e-05
1.28501e-08
3.08388e-05
1.20975e-08
3.08392e-05
1.13711e-08
3.08396e-05
1.06802e-08
3.084e-05
1.00287e-08
3.08403e-05
9.39795e-09
3.08406e-05
8.79652e-09
8.23871e-09
3.08409e-05
3.3304e-05
1.92673e-09
3.33034e-05
5.15687e-09
3.33027e-05
8.58088e-09
3.33019e-05
1.22307e-08
3.33012e-05
1.50928e-08
3.33004e-05
1.70081e-08
3.32997e-05
1.85582e-08
3.32991e-05
2.00295e-08
3.32986e-05
2.14047e-08
3.3298e-05
2.28051e-08
3.32975e-05
2.38491e-08
3.32972e-05
2.48397e-08
3.32968e-05
2.56145e-08
3.32965e-05
2.57215e-08
3.32964e-05
2.58037e-08
3.32964e-05
2.56219e-08
3.32966e-05
2.52372e-08
3.3297e-05
2.47431e-08
3.32974e-05
2.40932e-08
3.3298e-05
2.34292e-08
3.32985e-05
2.26271e-08
3.32991e-05
2.18133e-08
3.32996e-05
2.09139e-08
3.33001e-05
2.0033e-08
3.33007e-05
1.91126e-08
3.33012e-05
1.8213e-08
3.33018e-05
1.73017e-08
3.33023e-05
1.64212e-08
3.33029e-05
1.5554e-08
3.33034e-05
1.47159e-08
3.3304e-05
1.38757e-08
3.33046e-05
1.30876e-08
3.33051e-05
1.23276e-08
3.33056e-05
1.15976e-08
3.3306e-05
1.08983e-08
3.33065e-05
1.02294e-08
3.33069e-05
9.59287e-09
3.33073e-05
8.98632e-09
3.33077e-05
8.41171e-09
7.85688e-09
3.33081e-05
3.5963e-05
2.04093e-09
3.59625e-05
5.64974e-09
3.59618e-05
9.26708e-09
3.59612e-05
1.29145e-08
3.59605e-05
1.57661e-08
3.59598e-05
1.77048e-08
3.59592e-05
1.91844e-08
3.59586e-05
2.05874e-08
3.59582e-05
2.18515e-08
3.59578e-05
2.31424e-08
3.59575e-05
2.41398e-08
3.59575e-05
2.48887e-08
3.59575e-05
2.55473e-08
3.59576e-05
2.56673e-08
3.59578e-05
2.55714e-08
3.59582e-05
2.52975e-08
3.59586e-05
2.47837e-08
3.59592e-05
2.41887e-08
3.59598e-05
2.3442e-08
3.59605e-05
2.27241e-08
3.59612e-05
2.19248e-08
3.59619e-05
2.11362e-08
3.59626e-05
2.02605e-08
3.59632e-05
1.93421e-08
3.59639e-05
1.84049e-08
3.59647e-05
1.74915e-08
3.59654e-05
1.65897e-08
3.59661e-05
1.57223e-08
3.59667e-05
1.4919e-08
3.59673e-05
1.4114e-08
3.59679e-05
1.33347e-08
3.59684e-05
1.25793e-08
3.59688e-05
1.18539e-08
3.59693e-05
1.11526e-08
3.59697e-05
1.04833e-08
3.59701e-05
9.8397e-09
3.59705e-05
9.2289e-09
3.59708e-05
8.64455e-09
3.59711e-05
8.09194e-09
7.57358e-09
3.59714e-05
3.88348e-05
1.6982e-09
3.88334e-05
7.08974e-09
3.88334e-05
9.1782e-09
3.88325e-05
1.38504e-08
3.88326e-05
1.56858e-08
3.88317e-05
1.86018e-08
3.88315e-05
1.9354e-08
3.88308e-05
2.13578e-08
3.88306e-05
2.19878e-08
3.88301e-05
2.36165e-08
3.88301e-05
2.41734e-08
3.88298e-05
2.5184e-08
3.883e-05
2.53923e-08
3.88299e-05
2.57836e-08
3.88301e-05
2.53441e-08
3.88302e-05
2.51366e-08
3.88307e-05
2.43398e-08
3.88311e-05
2.37349e-08