/*--------------------------------*- C++ -*----------------------------------*\
| =========                 |                                                 |
| \\      /  F ield         | OpenFOAM: The Open Source CFD Toolbox           |
|  \\    /   O peration     | Version:  2312                                  |
|   \\  /    A nd           | Website:  www.openfoam.com                      |
|    \\/     M anipulation  |                                                 |
\*---------------------------------------------------------------------------*/
FoamFile
{
    version     2.0;
    format      ascii;
    arch        "LSB;label=32;scalar=64";
    class       volVectorField;
    location    "0.35";
    object      U;
}
// * * * * * * * * * * * * * * * * * * * * * * * * * * * * * * * * * * * * * //

dimensions      [0 1 -1 0 0 0 0];

internalField   nonuniform List<vector> 
5600
(
(0.971434 -0.000872262 0)
(1.02767 0.000498168 0)
(0.975132 -0.000479412 0)
(1.02459 0.000853627 0)
(0.976653 -0.000748709 0)
(1.02299 0.000381003 0)
(0.979266 -0.000283381 0)
(1.02022 0.000515237 0)
(0.981185 -0.000295904 0)
(1.01768 0.000255579 0)
(0.983158 -0.000340076 0)
(1.01588 9.07357e-05 0)
(0.985074 -0.000224717 0)
(1.01392 0.000382915 0)
(0.986445 9.58197e-05 0)
(1.01208 0.000378838 0)
(0.987649 0.00012627 0)
(1.01018 0.000301244 0)
(0.988659 3.91762e-05 0)
(1.00853 0.000169532 0)
(0.989578 -7.1904e-05 0)
(1.00698 6.3736e-05 0)
(0.990427 -0.000143554 0)
(1.00568 1.53171e-05 0)
(0.991133 -0.000125534 0)
(1.00444 3.79093e-05 0)
(0.991714 -4.66097e-05 0)
(1.00332 0.000105917 0)
(0.992101 5.52911e-05 0)
(1.00218 0.000201853 0)
(0.992296 0.000182049 0)
(1.00105 0.000342397 0)
(0.992327 0.00038611 0)
(0.999929 0.000607282 0)
(0.992239 0.000731553 0)
(0.998864 0.000999585 0)
(0.992096 0.0011837 0)
(0.997875 0.0015353 0)
(0.99198 0.0018894 0)
(0.997334 0.00245829 0)
(0.987137 -0.000887197 0)
(1.01119 0.000432263 0)
(0.990395 -0.000440477 0)
(1.00893 0.000900474 0)
(0.991799 -0.000782929 0)
(1.00766 0.000333966 0)
(0.993686 -0.000216193 0)
(1.0059 0.000508374 0)
(0.994911 -0.000230095 0)
(1.00416 0.000226873 0)
(0.995894 -0.000316061 0)
(1.00334 4.19284e-05 0)
(0.996778 -0.000165362 0)
(1.00213 0.000385173 0)
(0.997213 0.000159738 0)
(1.00151 0.000390623 0)
(0.9975 0.00021934 0)
(1.00065 0.000333841 0)
(0.997556 0.000133731 0)
(0.999886 0.000202293 0)
(0.997499 1.6934e-05 0)
(0.999154 9.77159e-05 0)
(0.99748 -6.72252e-05 0)
(0.998632 5.80565e-05 0)
(0.997404 -4.06515e-05 0)
(0.998135 0.000105145 0)
(0.99725 6.59027e-05 0)
(0.997702 0.000219776 0)
(0.996967 0.00022071 0)
(0.997191 0.000385143 0)
(0.996574 0.000428809 0)
(0.996656 0.000624725 0)
(0.996145 0.000750866 0)
(0.996129 0.00102617 0)
(0.995692 0.00124751 0)
(0.995612 0.00158725 0)
(0.995298 0.00188595 0)
(0.995289 0.00233058 0)
(0.995269 0.00281125 0)
(0.995643 0.00347274 0)
(0.996907 -0.000798871 0)
(1.002 0.000328324 0)
(0.997676 -0.0003535 0)
(1.00149 0.000784553 0)
(0.998367 -0.00066768 0)
(1.00076 0.000230888 0)
(0.998616 -0.000128273 0)
(1.00057 0.00040411 0)
(0.998924 -0.000121342 0)
(0.999905 0.000143372 0)
(0.998907 -0.000229593 0)
(0.99969 -3.83904e-05 0)
(0.998879 -4.68812e-05 0)
(0.999083 0.000311577 0)
(0.998767 0.000212489 0)
(0.999116 0.000325821 0)
(0.998669 0.000287232 0)
(0.998841 0.000292384 0)
(0.998434 0.000207551 0)
(0.998465 0.000176233 0)
(0.998075 9.87811e-05 0)
(0.997993 6.91075e-05 0)
(0.997772 1.57886e-05 0)
(0.997622 3.59497e-05 0)
(0.997421 2.47084e-05 0)
(0.997206 9.73709e-05 0)
(0.997047 0.000122624 0)
(0.99683 0.000234086 0)
(0.996633 0.000299646 0)
(0.996397 0.000448858 0)
(0.99618 0.00056989 0)
(0.995957 0.000768003 0)
(0.995738 0.000942972 0)
(0.995529 0.0011593 0)
(0.9953 0.00136465 0)
(0.995116 0.00161457 0)
(0.994949 0.00188084 0)
(0.994901 0.00219146 0)
(0.99496 0.0025213 0)
(0.995304 0.00286928 0)
(0.999635 -0.000789403 0)
(0.99976 0.00031311 0)
(0.999168 -0.000336258 0)
(0.999971 0.000775835 0)
(0.999677 -0.000637603 0)
(0.999408 0.000218973 0)
(0.99928 -0.000107962 0)
(0.999645 0.000389309 0)
(0.999429 -7.7495e-05 0)
(0.999348 0.000143255 0)
(0.99919 -0.000197405 0)
(0.999086 -3.89959e-05 0)
(0.998843 8.26589e-07 0)
(0.998682 0.000320704 0)
(0.9987 0.000227971 0)
(0.998718 0.000334847 0)
(0.99859 0.000319744 0)
(0.998551 0.000321345 0)
(0.998398 0.000271892 0)
(0.998267 0.000227032 0)
(0.998042 0.00016984 0)
(0.997869 0.000134524 0)
(0.997683 9.1088e-05 0)
(0.997501 0.000124752 0)
(0.997239 0.000125354 0)
(0.996996 0.000210334 0)
(0.996777 0.000252517 0)
(0.996528 0.00037429 0)
(0.996316 0.000465208 0)
(0.996073 0.000633579 0)
(0.995892 0.000786649 0)
(0.995678 0.00100525 0)
(0.995499 0.00120276 0)
(0.995299 0.00143119 0)
(0.995134 0.00165372 0)
(0.994994 0.00191545 0)
(0.994923 0.00219649 0)
(0.994946 0.00251274 0)
(0.995111 0.00284765 0)
(0.995518 0.00319456 0)
(1.00008 -0.000721714 0)
(0.999454 0.000266575 0)
(0.999345 -0.00028057 0)
(0.999784 0.000667552 0)
(0.999841 -0.000525163 0)
(0.999289 0.000161538 0)
(0.999343 -4.99836e-05 0)
(0.99952 0.000300099 0)
(0.999457 -2.92881e-06 0)
(0.999335 9.33179e-05 0)
(0.999232 -0.000113536 0)
(0.999007 -6.27155e-05 0)
(0.998781 7.66595e-05 0)
(0.998689 0.000290916 0)
(0.998682 0.000239516 0)
(0.998646 0.000319071 0)
(0.998573 0.000334216 0)
(0.998475 0.000316091 0)
(0.998402 0.000310747 0)
(0.998253 0.00024598 0)
(0.998046 0.000219364 0)
(0.997899 0.00017121 0)
(0.997676 0.000155016 0)
(0.997524 0.000191978 0)
(0.997225 0.000214504 0)
(0.996989 0.000301953 0)
(0.996753 0.000364646 0)
(0.996501 0.000496099 0)
(0.996287 0.000616867 0)
(0.996045 0.000801392 0)
(0.995878 0.000971607 0)
(0.995668 0.00117367 0)
(0.995516 0.00136313 0)
(0.995326 0.0015739 0)
(0.995205 0.00178832 0)
(0.995089 0.00201907 0)
(0.995068 0.00226009 0)
(0.995111 0.0025047 0)
(0.995308 0.00275198 0)
(0.995707 0.00298505 0)
(1.00012 -0.000704441 0)
(0.999443 0.000256658 0)
(0.999377 -0.000259707 0)
(0.999755 0.00063363 0)
(0.999846 -0.00047704 0)
(0.99932 0.000147253 0)
(0.999372 -2.01895e-05 0)
(0.999497 0.000272542 0)
(0.999437 3.4327e-05 0)
(0.99935 8.717e-05 0)
(0.999247 -6.23554e-05 0)
(0.999006 -4.3695e-05 0)
(0.99878 0.00010681 0)
(0.998735 0.000295006 0)
(0.998707 0.000260488 0)
(0.998629 0.000325829 0)
(0.998586 0.000362841 0)
(0.998453 0.00033945 0)
(0.998405 0.000356798 0)
(0.99828 0.000298705 0)
(0.998053 0.000279714 0)
(0.997928 0.000244916 0)
(0.997681 0.000238895 0)
(0.997536 0.00028977 0)
(0.997251 0.000338267 0)
(0.997021 0.000429382 0)
(0.996808 0.000523014 0)
(0.996571 0.000663444 0)
(0.996379 0.000811472 0)
(0.996149 0.000997042 0)
(0.995993 0.00117398 0)
(0.995789 0.00136651 0)
(0.995653 0.00155277 0)
(0.995479 0.00175339 0)
(0.995383 0.00195813 0)
(0.995287 0.00216883 0)
(0.995293 0.00238211 0)
(0.995356 0.00258884 0)
(0.995577 0.00279331 0)
(0.995994 0.00298401 0)
(1.00011 -0.000640297 0)
(0.999462 0.000212611 0)
(0.999398 -0.000203697 0)
(0.999744 0.000534623 0)
(0.999835 -0.000375147 0)
(0.999351 9.56571e-05 0)
(0.999393 3.92104e-05 0)
(0.999496 0.00020191 0)
(0.999421 9.40226e-05 0)
(0.999353 5.80263e-05 0)
(0.999255 -5.64968e-06 0)
(0.999021 -2.39268e-05 0)
(0.998802 0.000133881 0)
(0.998765 0.000292354 0)
(0.998733 0.000276242 0)
(0.99863 0.000330754 0)
(0.998591 0.000381962 0)
(0.998445 0.000353941 0)
(0.998395 0.000385692 0)
(0.998303 0.00033709 0)
(0.998064 0.000330714 0)
(0.997942 0.000307331 0)
(0.997697 0.000318181 0)
(0.997544 0.000379163 0)
(0.997286 0.000446702 0)
(0.997067 0.00055084 0)
(0.996883 0.000670656 0)
(0.996675 0.00082643 0)
(0.996502 0.000988051 0)
(0.996289 0.00116739 0)
(0.996143 0.00134091 0)
(0.995953 0.00152702 0)
(0.995831 0.00171055 0)
(0.995675 0.00190298 0)
(0.995594 0.00209548 0)
(0.995511 0.00228716 0)
(0.995525 0.00247302 0)
(0.995591 0.00264553 0)
(0.995811 0.00280477 0)
(0.996227 0.00294222 0)
(1.0001 -0.000611356 0)
(0.999487 0.000193346 0)
(0.999422 -0.000172027 0)
(0.999738 0.000484783 0)
(0.999819 -0.000315093 0)
(0.999384 7.3543e-05 0)
(0.999409 7.4489e-05 0)
(0.999505 0.000173947 0)
(0.999413 0.000125557 0)
(0.999353 5.85074e-05 0)
(0.999258 3.46563e-05 0)
(0.999035 9.40491e-06 0)
(0.998829 0.000159516 0)
(0.998794 0.000292518 0)
(0.998759 0.000306988 0)
(0.998641 0.000343417 0)
(0.998597 0.000407142 0)
(0.998452 0.000381066 0)
(0.998391 0.000425211 0)
(0.998317 0.000385449 0)
(0.99808 0.000401585 0)
(0.997957 0.00038535 0)
(0.997724 0.000421708 0)
(0.997573 0.000481382 0)
(0.997337 0.00057772 0)
(0.997135 0.000693016 0)
(0.996975 0.000840305 0)
(0.996787 0.000997107 0)
(0.996629 0.0011621 0)
(0.996432 0.00133548 0)
(0.996299 0.00151074 0)
(0.996127 0.00169622 0)
(0.996019 0.00187962 0)
(0.99588 0.00206223 0)
(0.995809 0.00223541 0)
(0.995736 0.00239304 0)
(0.995748 0.00253407 0)
(0.995808 0.00264953 0)
(0.996011 0.00274893 0)
(0.996401 0.00282989 0)
(1.00009 -0.000548727 0)
(0.999513 0.000148788 0)
(0.999445 -0.000115402 0)
(0.999735 0.000397601 0)
(0.999806 -0.000225404 0)
(0.999413 3.15473e-05 0)
(0.999424 0.000122699 0)
(0.999514 0.000126638 0)
(0.99941 0.000168399 0)
(0.999352 5.2562e-05 0)
(0.999263 7.41602e-05 0)
(0.999057 3.43523e-05 0)
(0.998864 0.000202487 0)
(0.998816 0.000287539 0)
(0.998774 0.000337633 0)
(0.998661 0.000348449 0)
(0.998608 0.000440787 0)
(0.998461 0.000397487 0)
(0.998394 0.000468615 0)
(0.998326 0.000419991 0)
(0.998094 0.00047607 0)
(0.997974 0.000449639 0)
(0.997759 0.000529635 0)
(0.99762 0.000582256 0)
(0.997407 0.000715941 0)
(0.997226 0.000830468 0)
(0.997083 0.000994038 0)
(0.99691 0.0011332 0)
(0.996767 0.00130643 0)
(0.996588 0.00146849 0)
(0.996473 0.0016605 0)
(0.996317 0.00184883 0)
(0.996217 0.00206505 0)
(0.996078 0.0022679 0)
(0.995995 0.00248028 0)
(0.995901 0.00265362 0)
(0.995882 0.00281868 0)
(0.995914 0.00292147 0)
(0.996103 0.00297004 0)
(0.996533 0.00285694 0)
(1.00009 -0.000510032 0)
(0.999536 0.000121614 0)
(0.999474 -7.6448e-05 0)
(0.99973 0.000339856 0)
(0.999798 -0.000160961 0)
(0.99944 1.09953e-05 0)
(0.999443 0.00015872 0)
(0.999523 0.000107661 0)
(0.999416 0.000181015 0)
(0.999346 7.3302e-05 0)
(0.999272 0.000106269 0)
(0.999074 6.87081e-05 0)
(0.9989 0.000227049 0)
(0.998839 0.000294386 0)
(0.998799 0.000364128 0)
(0.998681 0.000373307 0)
(0.998624 0.000465982 0)
(0.998475 0.000432548 0)
(0.998409 0.000511521 0)
(0.99834 0.000474518 0)
(0.998116 0.00055329 0)
(0.998001 0.000541401 0)
(0.99781 0.000648202 0)
(0.997684 0.000718148 0)
(0.997497 0.000861754 0)
(0.997323 0.000978035 0)
(0.997195 0.00112927 0)
(0.997033 0.00126667 0)
(0.996913 0.00143302 0)
(0.996754 0.00159572 0)
(0.99667 0.00177848 0)
(0.996552 0.0019564 0)
(0.996492 0.00215082 0)
(0.996385 0.00232547 0)
(0.996315 0.00250698 0)
(0.996217 0.00265728 0)
(0.996159 0.00280944 0)
(0.996061 0.00290482 0)
(0.995894 0.00295066 0)
(0.99548 0.00283281 0)
(1.00008 -0.000448824 0)
(0.999567 7.75589e-05 0)
(0.999498 -2.09949e-05 0)
(0.999731 0.000269049 0)
(0.999789 -9.15561e-05 0)
(0.999471 -1.05103e-05 0)
(0.99946 0.000171176 0)
(0.999529 0.000123915 0)
(0.999423 0.000163521 0)
(0.999349 0.000113527 0)
(0.999282 0.000116891 0)
(0.999099 0.000121193 0)
(0.998937 0.000242255 0)
(0.998864 0.000327234 0)
(0.998816 0.000371688 0)
(0.998707 0.000411454 0)
(0.998645 0.000479509 0)
(0.998493 0.000483979 0)
(0.998425 0.000542647 0)
(0.998362 0.000541442 0)
(0.998145 0.000620372 0)
(0.99804 0.000651307 0)
(0.997875 0.000751001 0)
(0.997761 0.000855575 0)
(0.99759 0.000973326 0)
(0.997426 0.00110813 0)
(0.997314 0.00123576 0)
(0.99717 0.0013904 0)
(0.997069 0.00153765 0)
(0.996926 0.00170285 0)
(0.996852 0.00184926 0)
(0.996735 0.00199246 0)
(0.996661 0.00211591 0)
(0.996538 0.00222871 0)
(0.996455 0.00233751 0)
(0.996354 0.00243975 0)
(0.996283 0.002542 0)
(0.996166 0.00261976 0)
(0.995986 0.00268863 0)
(0.995611 0.00273163 0)
(1.00007 -0.000402983 0)
(0.999603 4.54574e-05 0)
(0.999521 1.80575e-05 0)
(0.999736 0.000216553 0)
(0.99978 -3.81073e-05 0)
(0.999501 -6.0838e-06 0)
(0.999484 0.000163028 0)
(0.999541 0.000143251 0)
(0.999432 0.000168243 0)
(0.999353 0.000146523 0)
(0.999291 0.000139507 0)
(0.999124 0.000163852 0)
(0.998972 0.00026341 0)
(0.998893 0.000349808 0)
(0.998844 0.000393431 0)
(0.998737 0.000450092 0)
(0.998669 0.000506291 0)
(0.99852 0.000530219 0)
(0.998451 0.000594157 0)
(0.998398 0.000613463 0)
(0.998191 0.000706998 0)
(0.998093 0.000770512 0)
(0.997951 0.000861324 0)
(0.997845 0.000975863 0)
(0.99769 0.0010847 0)
(0.997536 0.00122772 0)
(0.99744 0.00134805 0)
(0.997312 0.00150072 0)
(0.997223 0.00162995 0)
(0.997084 0.00176709 0)
(0.997002 0.00187662 0)
(0.99688 0.00198642 0)
(0.996807 0.00209177 0)
(0.996706 0.00220136 0)
(0.996645 0.00232118 0)
(0.996562 0.00243297 0)
(0.996487 0.00254699 0)
(0.996353 0.00263489 0)
(0.996136 0.00271793 0)
(0.995718 0.00276995 0)
(1.00006 -0.000344775 0)
(0.999641 5.23066e-06 0)
(0.999545 6.81998e-05 0)
(0.999743 0.000168613 0)
(0.999777 -3.88298e-06 0)
(0.999528 1.98917e-05 0)
(0.999508 0.000152478 0)
(0.999552 0.000150398 0)
(0.999443 0.000175157 0)
(0.999363 0.000168332 0)
(0.999306 0.000165847 0)
(0.999152 0.000201471 0)
(0.99901 0.000291921 0)
(0.998923 0.0003773 0)
(0.99887 0.000419856 0)
(0.99877 0.000482475 0)
(0.998697 0.000542571 0)
(0.998553 0.000576869 0)
(0.998485 0.000657882 0)
(0.998442 0.000689586 0)
(0.998252 0.000790339 0)
(0.998153 0.000875813 0)
(0.998028 0.000957633 0)
(0.997937 0.00107056 0)
(0.997799 0.00117899 0)
(0.997658 0.00131644 0)
(0.997572 0.00142938 0)
(0.997453 0.00156005 0)
(0.997358 0.00167683 0)
(0.997213 0.00179201 0)
(0.99713 0.00189434 0)
(0.997028 0.0019964 0)
(0.996977 0.00210814 0)
(0.996898 0.00221736 0)
(0.996844 0.00233469 0)
(0.996761 0.00243431 0)
(0.996675 0.00253563 0)
(0.996527 0.00261309 0)
(0.996296 0.00269319 0)
(0.995876 0.00275328 0)
(1.00005 -0.000295545 0)
(0.999683 -2.58005e-05 0)
(0.99957 9.52688e-05 0)
(0.999747 0.000147206 0)
(0.999779 1.14351e-05 0)
(0.999555 5.18072e-05 0)
(0.999533 0.000152715 0)
(0.99957 0.000157044 0)
(0.999459 0.000185755 0)
(0.999372 0.000198722 0)
(0.999321 0.000194789 0)
(0.999182 0.000240356 0)
(0.999048 0.000321691 0)
(0.998957 0.00040396 0)
(0.998905 0.000451162 0)
(0.998808 0.000524346 0)
(0.998732 0.00058676 0)
(0.998598 0.000633936 0)
(0.998531 0.00072378 0)
(0.998495 0.000775884 0)
(0.998324 0.000867812 0)
(0.998224 0.000968057 0)
(0.99811 0.00105489 0)
(0.998033 0.00116071 0)
(0.997911 0.0012699 0)
(0.997775 0.00139666 0)
(0.997691 0.00150153 0)
(0.997583 0.00160848 0)
(0.997498 0.00171182 0)
(0.997362 0.00182158 0)
(0.997284 0.00193131 0)
(0.997196 0.00203797 0)
(0.997156 0.00214831 0)
(0.997089 0.00225152 0)
(0.997038 0.00235733 0)
(0.996956 0.00244934 0)
(0.996865 0.00254108 0)
(0.996716 0.00261817 0)
(0.996484 0.0026962 0)
(0.996067 0.00276256 0)
(1.00005 -0.000243653 0)
(0.999725 -5.70622e-05 0)
(0.999599 0.000104911 0)
(0.999753 0.000145592 0)
(0.999786 3.1341e-05 0)
(0.999582 7.51715e-05 0)
(0.999556 0.00016401 0)
(0.999586 0.000162644 0)
(0.999478 0.000192953 0)
(0.999388 0.000221613 0)
(0.999342 0.000226195 0)
(0.999215 0.00027774 0)
(0.999088 0.000356976 0)
(0.998992 0.000435861 0)
(0.998941 0.000487616 0)
(0.998852 0.000564025 0)
(0.998773 0.00063847 0)
(0.998648 0.000694622 0)
(0.998587 0.000785444 0)
(0.998553 0.000854159 0)
(0.9984 0.000941746 0)
(0.998307 0.00104148 0)
(0.998197 0.00114179 0)
(0.998135 0.00123785 0)
(0.998029 0.00134572 0)
(0.997899 0.00146293 0)
(0.997811 0.00156409 0)
(0.997707 0.00165971 0)
(0.997634 0.00175192 0)
(0.997516 0.00185629 0)
(0.997451 0.00196231 0)
(0.997374 0.00206943 0)
(0.997341 0.00217225 0)
(0.997281 0.00227141 0)
(0.997234 0.00236613 0)
(0.997153 0.00245466 0)
(0.997063 0.00253771 0)
(0.996913 0.00261413 0)
(0.996683 0.00268571 0)
(0.996265 0.00275185 0)
(1.00004 -0.000196287 0)
(0.999767 -8.05468e-05 0)
(0.999633 0.000108413 0)
(0.99976 0.000151751 0)
(0.999794 4.87286e-05 0)
(0.999611 9.2324e-05 0)
(0.99958 0.000174123 0)
(0.999604 0.000173679 0)
(0.999501 0.000206547 0)
(0.999406 0.00024578 0)
(0.999363 0.000257127 0)
(0.999251 0.000312111 0)
(0.999129 0.000394722 0)
(0.999032 0.000469835 0)
(0.998985 0.000527833 0)
(0.998904 0.000608522 0)
(0.998824 0.000692702 0)
(0.998705 0.000761052 0)
(0.998651 0.000844275 0)
(0.998623 0.000921479 0)
(0.998481 0.0010206 0)
(0.9984 0.00110859 0)
(0.998295 0.00121987 0)
(0.998238 0.00131059 0)
(0.998148 0.00141055 0)
(0.998022 0.00151775 0)
(0.997932 0.00161282 0)
(0.99783 0.00171004 0)
(0.997774 0.00179667 0)
(0.997677 0.00190143 0)
(0.997625 0.00199917 0)
(0.997556 0.00210568 0)
(0.997528 0.00219857 0)
(0.997474 0.00229457 0)
(0.99743 0.00237867 0)
(0.997352 0.00246375 0)
(0.997262 0.00253818 0)
(0.997114 0.00261182 0)
(0.996883 0.00267632 0)
(0.996467 0.00273955 0)
(1.00003 -0.000153125 0)
(0.999808 -9.78117e-05 0)
(0.99967 0.000107153 0)
(0.999769 0.000157572 0)
(0.999803 7.0338e-05 0)
(0.99964 0.000113821 0)
(0.999604 0.000186422 0)
(0.999623 0.000186341 0)
(0.999526 0.000221988 0)
(0.99943 0.000270233 0)
(0.99939 0.000288259 0)
(0.99929 0.000347046 0)
(0.999175 0.000434524 0)
(0.999073 0.000512984 0)
(0.999031 0.000572976 0)
(0.998961 0.000653191 0)
(0.998883 0.000742888 0)
(0.998765 0.000825999 0)
(0.998716 0.000906485 0)
(0.998703 0.000977539 0)
(0.998567 0.00109359 0)
(0.998496 0.00117172 0)
(0.9984 0.0012804 0)
(0.998342 0.00137413 0)
(0.998267 0.00146214 0)
(0.998148 0.00156695 0)
(0.998066 0.00165485 0)
(0.997968 0.00176076 0)
(0.997925 0.00184263 0)
(0.997843 0.00194738 0)
(0.997804 0.00203488 0)
(0.997743 0.00213736 0)
(0.997719 0.00222131 0)
(0.997668 0.00231221 0)
(0.997627 0.00238853 0)
(0.997551 0.00246795 0)
(0.997462 0.0025362 0)
(0.997314 0.00260439 0)
(0.997084 0.00266418 0)
(0.996668 0.00272236 0)
(1.00003 -0.000113637 0)
(0.999847 -0.000109972 0)
(0.999712 0.000101856 0)
(0.999779 0.000165562 0)
(0.999813 9.09392e-05 0)
(0.999669 0.000134808 0)
(0.999628 0.000201514 0)
(0.999643 0.000199709 0)
(0.999555 0.000239338 0)
(0.999454 0.000299062 0)
(0.999416 0.000320286 0)
(0.999334 0.000378347 0)
(0.999224 0.000470634 0)
(0.99912 0.000556202 0)
(0.999081 0.00062211 0)
(0.999022 0.000700714 0)
(0.998952 0.000789562 0)
(0.998837 0.000884254 0)
(0.998783 0.000973445 0)
(0.998792 0.00102999 0)
(0.998664 0.00115308 0)
(0.998592 0.00123723 0)
(0.998513 0.00133383 0)
(0.99845 0.00143367 0)
(0.998388 0.00151235 0)
(0.998276 0.00161921 0)
(0.998207 0.00169842 0)
(0.998115 0.00180629 0)
(0.998079 0.00188409 0)
(0.99801 0.00198518 0)
(0.99798 0.0020653 0)
(0.997928 0.00215933 0)
(0.997906 0.00223701 0)
(0.997861 0.00231948 0)
(0.997821 0.00239131 0)
(0.99775 0.00246263 0)
(0.99766 0.00252747 0)
(0.997515 0.00258812 0)
(0.997283 0.00264539 0)
(0.99687 0.00269686 0)
(1.00002 -8.10084e-05 0)
(0.999884 -0.000104366 0)
(0.999758 8.6834e-05 0)
(0.999793 0.000169156 0)
(0.999824 0.000113105 0)
(0.999699 0.000154791 0)
(0.999651 0.000222143 0)
(0.999663 0.000216682 0)
(0.999586 0.000253398 0)
(0.999483 0.000326824 0)
(0.999445 0.000358896 0)
(0.999378 0.000412127 0)
(0.99928 0.000506009 0)
(0.999172 0.00060048 0)
(0.999133 0.000674369 0)
(0.999085 0.000751051 0)
(0.999026 0.000837248 0)
(0.998918 0.000933337 0)
(0.998851 0.00103872 0)
(0.998877 0.0010851 0)
(0.998773 0.00119797 0)
(0.998694 0.00129788 0)
(0.998627 0.00138173 0)
(0.998564 0.00148485 0)
(0.998515 0.00155598 0)
(0.998411 0.00166295 0)
(0.998352 0.00173734 0)
(0.998269 0.00184021 0)
(0.998239 0.00191689 0)
(0.998181 0.00201052 0)
(0.998156 0.0020885 0)
(0.998113 0.00217202 0)
(0.998092 0.00224695 0)
(0.998054 0.00231928 0)
(0.998013 0.00238888 0)
(0.997947 0.00245142 0)
(0.997856 0.00251435 0)
(0.997713 0.00256742 0)
(0.997481 0.00262268 0)
(0.997069 0.00266751 0)
(1.00002 -5.56956e-05 0)
(0.999913 -8.12118e-05 0)
(0.999801 6.33983e-05 0)
(0.999809 0.000165486 0)
(0.999835 0.000135948 0)
(0.999727 0.000173099 0)
(0.999672 0.00024497 0)
(0.999679 0.000241461 0)
(0.999618 0.000269716 0)
(0.999515 0.000352091 0)
(0.999472 0.000399116 0)
(0.999421 0.000448338 0)
(0.999337 0.000538688 0)
(0.999229 0.000640079 0)
(0.999189 0.0007239 0)
(0.999146 0.000801764 0)
(0.999099 0.000886303 0)
(0.99901 0.000976661 0)
(0.998927 0.00109494 0)
(0.998956 0.00114603 0)
(0.998888 0.00123749 0)
(0.998802 0.00134902 0)
(0.998743 0.00142714 0)
(0.998679 0.00153026 0)
(0.998641 0.00159647 0)
(0.998548 0.00169776 0)
(0.998496 0.00177179 0)
(0.998424 0.00186528 0)
(0.998398 0.00194209 0)
(0.998352 0.00202546 0)
(0.998328 0.00210312 0)
(0.998294 0.00217649 0)
(0.998273 0.00224958 0)
(0.998241 0.00231229 0)
(0.998202 0.00237918 0)
(0.99814 0.00243369 0)
(0.998048 0.00249397 0)
(0.997907 0.00254075 0)
(0.997673 0.00259331 0)
(0.997263 0.00263295 0)
(1.00001 -3.3907e-05 0)
(0.999935 -6.06983e-05 0)
(0.999839 5.20636e-05 0)
(0.99983 0.000158618 0)
(0.999846 0.000156259 0)
(0.999753 0.000191078 0)
(0.999693 0.000265248 0)
(0.999691 0.000273146 0)
(0.999647 0.000291534 0)
(0.999553 0.00037305 0)
(0.999502 0.000438063 0)
(0.99946 0.000490057 0)
(0.999396 0.000573296 0)
(0.999292 0.000678432 0)
(0.999248 0.000770947 0)
(0.999211 0.0008502 0)
(0.999171 0.000936644 0)
(0.999104 0.00101872 0)
(0.999014 0.00113885 0)
(0.999031 0.00120652 0)
(0.998998 0.00127674 0)
(0.998919 0.00138806 0)
(0.998862 0.00146651 0)
(0.998798 0.00156586 0)
(0.998767 0.00163183 0)
(0.998688 0.00172246 0)
(0.99864 0.00179834 0)
(0.99858 0.00188177 0)
(0.998556 0.00195883 0)
(0.998522 0.00203244 0)
(0.9985 0.0021085 0)
(0.998472 0.00217405 0)
(0.998451 0.00224416 0)
(0.998424 0.00230019 0)
(0.998385 0.00236253 0)
(0.998328 0.00241149 0)
(0.998237 0.00246704 0)
(0.998097 0.00250989 0)
(0.997862 0.00255808 0)
(0.997452 0.00259481 0)
(1.00001 -1.75117e-05 0)
(0.999952 -3.96949e-05 0)
(0.999873 5.44144e-05 0)
(0.99985 0.000150921 0)
(0.999858 0.000168158 0)
(0.999778 0.000207573 0)
(0.999715 0.000282144 0)
(0.999702 0.000307015 0)
(0.999673 0.000322846 0)
(0.999591 0.000395643 0)
(0.999536 0.000472086 0)
(0.999499 0.000531528 0)
(0.999452 0.000609569 0)
(0.99936 0.000712588 0)
(0.999313 0.000813449 0)
(0.999277 0.000895089 0)
(0.999243 0.000983441 0)
(0.999197 0.00106108 0)
(0.999113 0.00117262 0)
(0.999109 0.00125868 0)
(0.999101 0.00131846 0)
(0.999039 0.00141932 0)
(0.998984 0.00149779 0)
(0.998919 0.00159118 0)
(0.998889 0.00165953 0)
(0.998828 0.00173924 0)
(0.998784 0.00181541 0)
(0.998736 0.00189038 0)
(0.998713 0.0019661 0)
(0.998688 0.00203222 0)
(0.99867 0.00210421 0)
(0.998648 0.0021639 0)
(0.998626 0.00222927 0)
(0.9986 0.00228097 0)
(0.998564 0.00233776 0)
(0.998509 0.00238294 0)
(0.99842 0.0024328 0)
(0.998281 0.0024729 0)
(0.998047 0.00251607 0)
(0.997635 0.00255088 0)
(1.00001 -5.06937e-06 0)
(0.999965 -1.75518e-05 0)
(0.999901 5.68506e-05 0)
(0.999869 0.000148494 0)
(0.999871 0.000178262 0)
(0.999803 0.000221869 0)
(0.99974 0.000296366 0)
(0.999716 0.000338027 0)
(0.999694 0.000359696 0)
(0.999629 0.00042253 0)
(0.999574 0.000504032 0)
(0.999538 0.000571738 0)
(0.999508 0.000647381 0)
(0.99943 0.000746262 0)
(0.999383 0.000850487 0)
(0.999349 0.000936167 0)
(0.999318 0.00102567 0)
(0.999287 0.00110317 0)
(0.999219 0.00120076 0)
(0.999197 0.00129705 0)
(0.999197 0.00135775 0)
(0.999155 0.00144492 0)
(0.999107 0.00152103 0)
(0.999045 0.00160641 0)
(0.999013 0.00167747 0)
(0.998965 0.00174898 0)
(0.99893 0.00182298 0)
(0.99889 0.00189165 0)
(0.99887 0.00196375 0)
(0.998852 0.00202508 0)
(0.998837 0.00209112 0)
(0.998819 0.00214677 0)
(0.998798 0.002206 0)
(0.998773 0.00225496 0)
(0.998737 0.00230584 0)
(0.998683 0.0023485 0)
(0.998597 0.00239254 0)
(0.998459 0.0024304 0)
(0.998226 0.00246853 0)
(0.997813 0.00250164 0)
(1.00001 3.47891e-06 0)
(0.999973 3.8992e-06 0)
(0.999925 6.33955e-05 0)
(0.999888 0.0001509 0)
(0.999884 0.000190897 0)
(0.999827 0.000233912 0)
(0.999767 0.000307516 0)
(0.999733 0.000363058 0)
(0.999714 0.000397131 0)
(0.999663 0.000454413 0)
(0.999614 0.000535283 0)
(0.99958 0.0006094 0)
(0.999562 0.000684469 0)
(0.9995 0.000778646 0)
(0.999457 0.000881615 0)
(0.999424 0.000971464 0)
(0.999396 0.00106118 0)
(0.999374 0.00114114 0)
(0.999325 0.00122669 0)
(0.999295 0.00132265 0)
(0.999294 0.00138963 0)
(0.999266 0.0014661 0)
(0.999227 0.00153771 0)
(0.999172 0.00161396 0)
(0.999138 0.00168483 0)
(0.999101 0.00175107 0)
(0.999073 0.00182089 0)
(0.999043 0.00188481 0)
(0.999025 0.00195178 0)
(0.999011 0.00200951 0)
(0.999 0.00206935 0)
(0.998985 0.00212133 0)
(0.998966 0.0021745 0)
(0.99894 0.00222064 0)
(0.998906 0.00226633 0)
(0.998852 0.00230642 0)
(0.998768 0.00234563 0)
(0.99863 0.00238092 0)
(0.998399 0.00241485 0)
(0.997985 0.00244574 0)
(1.00001 1.01226e-05 0)
(0.999979 2.22629e-05 0)
(0.999942 7.44151e-05 0)
(0.999905 0.000154349 0)
(0.999896 0.000203758 0)
(0.999848 0.000247991 0)
(0.999796 0.000317164 0)
(0.999755 0.000382357 0)
(0.999735 0.000430699 0)
(0.999697 0.000487307 0)
(0.999655 0.000567175 0)
(0.999622 0.000646113 0)
(0.999615 0.00071965 0)
(0.99957 0.000810928 0)
(0.999534 0.000908738 0)
(0.999504 0.000999336 0)
(0.99948 0.00108973 0)
(0.99946 0.00117105 0)
(0.999428 0.00125052 0)
(0.999399 0.0013384 0)
(0.999393 0.00140976 0)
(0.999372 0.00147913 0)
(0.999342 0.00154631 0)
(0.999297 0.0016139 0)
(0.999266 0.00168165 0)
(0.999236 0.00174395 0)
(0.999216 0.00180898 0)
(0.999193 0.00186914 0)
(0.999179 0.00193053 0)
(0.999166 0.00198538 0)
(0.999159 0.00203943 0)
(0.999145 0.00208819 0)
(0.99913 0.00213571 0)
(0.999103 0.00217899 0)
(0.999069 0.00222008 0)
(0.999015 0.00225772 0)
(0.998932 0.00229295 0)
(0.998795 0.00232573 0)
(0.998565 0.00235616 0)
(0.998151 0.00238473 0)
(1 1.50237e-05 0)
(0.999983 3.71765e-05 0)
(0.999956 8.68201e-05 0)
(0.99992 0.000160967 0)
(0.999908 0.00021685 0)
(0.999868 0.000264664 0)
(0.999825 0.000328705 0)
(0.999783 0.000396439 0)
(0.99976 0.000457004 0)
(0.99973 0.000517623 0)
(0.999698 0.000595911 0)
(0.999666 0.000681081 0)
(0.999667 0.000753383 0)
(0.999638 0.000840233 0)
(0.99961 0.000933766 0)
(0.999587 0.00102062 0)
(0.999567 0.00111017 0)
(0.99955 0.00119073 0)
(0.999527 0.00126846 0)
(0.999504 0.00134677 0)
(0.999494 0.00141784 0)
(0.999477 0.00148201 0)
(0.999453 0.00154424 0)
(0.999417 0.00160523 0)
(0.999392 0.0016674 0)
(0.99937 0.00172622 0)
(0.999356 0.00178563 0)
(0.99934 0.00184211 0)
(0.99933 0.00189768 0)
(0.999319 0.00194917 0)
(0.999313 0.00199786 0)
(0.999301 0.00204308 0)
(0.999287 0.00208556 0)
(0.999262 0.00212549 0)
(0.999228 0.00216248 0)
(0.999173 0.00219725 0)
(0.999092 0.00222904 0)
(0.998954 0.00225909 0)
(0.998726 0.00228647 0)
(0.998312 0.00231249 0)
(1 1.89751e-05 0)
(0.999986 5.01223e-05 0)
(0.999967 0.000100131 0)
(0.999934 0.000170776 0)
(0.999921 0.000230842 0)
(0.999886 0.00028208 0)
(0.999852 0.000342993 0)
(0.999813 0.000409096 0)
(0.999789 0.000476221 0)
(0.999764 0.000543465 0)
(0.999744 0.00062021 0)
(0.999712 0.000710433 0)
(0.999717 0.000784976 0)
(0.999705 0.000864756 0)
(0.999684 0.000954968 0)
(0.99967 0.00103665 0)
(0.999656 0.00112375 0)
(0.999642 0.00120256 0)
(0.999625 0.00127953 0)
(0.999606 0.00135219 0)
(0.999595 0.00141987 0)
(0.999578 0.00148095 0)
(0.99956 0.00153914 0)
(0.999532 0.00159656 0)
(0.999515 0.00165356 0)
(0.9995 0.00170953 0)
(0.999494 0.00176357 0)
(0.999483 0.00181678 0)
(0.999477 0.00186707 0)
(0.999467 0.00191556 0)
(0.999462 0.00195975 0)
(0.99945 0.00200201 0)
(0.999437 0.00204038 0)
(0.999413 0.00207742 0)
(0.99938 0.00211098 0)
(0.999325 0.00214329 0)
(0.999243 0.00217234 0)
(0.999105 0.0022002 0)
(0.998877 0.00222522 0)
(0.998462 0.0022492 0)
(1 2.17426e-05 0)
(0.999988 5.96534e-05 0)
(0.999976 0.000111879 0)
(0.999946 0.000180983 0)
(0.999934 0.000244283 0)
(0.999904 0.000299029 0)
(0.999877 0.000358524 0)
(0.999843 0.000422327 0)
(0.999823 0.000491397 0)
(0.999801 0.000564697 0)
(0.999791 0.000640168 0)
(0.999763 0.000730728 0)
(0.999767 0.000810648 0)
(0.999768 0.000882444 0)
(0.999758 0.000966166 0)
(0.999751 0.00104088 0)
(0.999747 0.00111928 0)
(0.999738 0.00119197 0)
(0.999726 0.0012632 0)
(0.999708 0.0013308 0)
(0.999698 0.0013922 0)
(0.999681 0.00144995 0)
(0.999669 0.00150301 0)
(0.999648 0.00155699 0)
(0.999638 0.00160789 0)
(0.999629 0.00165941 0)
(0.999629 0.00170718 0)
(0.999623 0.00175546 0)
(0.999622 0.00180011 0)
(0.999613 0.00184429 0)
(0.999608 0.00188412 0)
(0.999596 0.00192264 0)
(0.999585 0.00195726 0)
(0.999561 0.00199078 0)
(0.99953 0.00202119 0)
(0.999475 0.00205051 0)
(0.999394 0.00207712 0)
(0.999256 0.00210257 0)
(0.999027 0.00212569 0)
(0.998613 0.00214769 0)
(1 2.4835e-05 0)
(0.99999 6.90919e-05 0)
(0.999983 0.000124303 0)
(0.999958 0.000192759 0)
(0.999947 0.00025816 0)
(0.999923 0.00031462 0)
(0.999903 0.000372962 0)
(0.999874 0.000435508 0)
(0.999859 0.000504103 0)
(0.99984 0.000581079 0)
(0.999838 0.000657593 0)
(0.999818 0.000744577 0)
(0.999817 0.000831348 0)
(0.999824 0.000903116 0)
(0.999824 0.000983816 0)
(0.999823 0.00105837 0)
(0.999827 0.00113149 0)
(0.999823 0.00120234 0)
(0.999819 0.00126936 0)
(0.999803 0.00133605 0)
(0.999794 0.00139508 0)
(0.999779 0.00145227 0)
(0.999771 0.00150303 0)
(0.999756 0.0015545 0)
(0.999752 0.00160162 0)
(0.999747 0.0016491 0)
(0.999752 0.00169266 0)
(0.999751 0.00173635 0)
(0.999754 0.00177702 0)
(0.999748 0.00181709 0)
(0.999744 0.00185388 0)
(0.999733 0.00188886 0)
(0.999721 0.00192062 0)
(0.999699 0.00195037 0)
(0.999668 0.00197757 0)
(0.999615 0.00200292 0)
(0.999534 0.00202627 0)
(0.999397 0.00204786 0)
(0.999169 0.00206784 0)
(0.998756 0.0020862 0)
(1 2.44457e-05 0)
(0.999992 7.48119e-05 0)
(0.999988 0.000134821 0)
(0.999967 0.000205745 0)
(0.999959 0.000272379 0)
(0.999939 0.000330715 0)
(0.999926 0.000387083 0)
(0.999904 0.000449126 0)
(0.999896 0.000515611 0)
(0.999881 0.000591375 0)
(0.999885 0.000665592 0)
(0.999876 0.000742213 0)
(0.999877 0.000823407 0)
(0.999888 0.000890574 0)
(0.9999 0.000958304 0)
(0.999905 0.00102349 0)
(0.999917 0.00108225 0)
(0.99992 0.00114113 0)
(0.999923 0.00119492 0)
(0.999911 0.00125254 0)
(0.999903 0.00130594 0)
(0.999888 0.00136106 0)
(0.999882 0.00141063 0)
(0.99987 0.00145945 0)
(0.999869 0.00150314 0)
(0.999868 0.00154542 0)
(0.999876 0.00158436 0)
(0.99988 0.00162267 0)
(0.999887 0.00165977 0)
(0.999884 0.00169654 0)
(0.999881 0.00173252 0)
(0.999868 0.00176725 0)
(0.999853 0.0018008 0)
(0.999828 0.00183243 0)
(0.999794 0.00186286 0)