/*--------------------------------*- C++ -*----------------------------------*\
| =========                 |                                                 |
| \\      /  F ield         | OpenFOAM: The Open Source CFD Toolbox           |
|  \\    /   O peration     | Version:  2312                                  |
|   \\  /    A nd           | Website:  www.openfoam.com                      |
|    \\/     M anipulation  |                                                 |
\*---------------------------------------------------------------------------*/
FoamFile
{
    version     2.0;
    format      ascii;
    arch        "LSB;label=32;scalar=64";
    class       volScalarField;
    location    "1";
    object      p;
}
// * * * * * * * * * * * * * * * * * * * * * * * * * * * * * * * * * * * * * //

dimensions      [0 2 -2 0 0 0 0];

internalField   nonuniform List<scalar> 
5600
(
-8.21161e-09
0.000474207
0.000304276
0.000442517
0.000371134
0.000530901
0.000508937
0.000652875
0.000674847
0.000809206
0.00086716
0.000997693
0.00108302
0.00121177
0.00131998
0.00145416
0.00158137
0.00172159
0.00186418
0.00201714
0.00217708
0.00234822
0.002527
0.00271817
0.00291473
0.00312301
0.00333616
0.0035613
0.00379318
0.00403995
0.00429826
0.00457543
0.00486623
0.005168
0.00546866
0.00575882
0.00604554
0.00632677
0.00653924
0.00650825
2.58893e-06
0.000471242
0.000306247
0.000439689
0.000373624
0.000527275
0.000511518
0.000648671
0.000677556
0.000804508
0.000869318
0.000992699
0.00108388
0.0012068
0.00131921
0.00144888
0.00157776
0.00171589
0.00185927
0.00201268
0.00217175
0.00234187
0.00251852
0.00270625
0.00290119
0.00310631
0.00331876
0.00354124
0.00377204
0.00401238
0.00425861
0.0045055
0.00474617
0.00498145
0.00521376
0.00543359
0.00561414
0.00571208
0.00565599
0.00532211
4.9384e-06
0.000469572
0.000307283
0.00043849
0.000374626
0.000525587
0.000512286
0.000646821
0.00067807
0.000802573
0.0008695
0.000990841
0.00108342
0.00120513
0.00131772
0.00144693
0.00157548
0.00171337
0.00185612
0.00200845
0.00216699
0.00233646
0.00251154
0.00269807
0.00289114
0.00309456
0.00330399
0.00352199
0.00374495
0.00397428
0.00420568
0.00443374
0.00465351
0.00486869
0.00507926
0.00527341
0.00542351
0.00549266
0.00541938
0.0050966
8.88861e-06
0.000465392
0.000309763
0.00043468
0.000377637
0.000520709
0.000515488
0.000641445
0.000681352
0.000796641
0.000871955
0.0009846
0.00108414
0.00119881
0.00131637
0.00144159
0.00157096
0.00170801
0.00184997
0.00200106
0.00215902
0.00232579
0.00249961
0.0026824
0.00287298
0.00307228
0.00327883
0.00349139
0.00370518
0.00391412
0.00411603
0.0043147
0.00451219
0.00470439
0.00487975
0.00502072
0.00510252
0.0050914
0.00493492
0.00453967
1.2464e-05
0.000461594
0.000311793
0.00043206
0.000379714
0.00051712
0.000516992
0.000637617
0.000682266
0.000793068
0.000872089
0.000981429
0.00108304
0.00119543
0.00131301
0.00143793
0.00156598
0.00170191
0.00184309
0.00199283
0.00214918
0.00231382
0.00248525
0.00266496
0.00285157
0.00304478
0.00324234
0.00344291
0.00364357
0.00383999
0.00402626
0.00420387
0.00437747
0.00454395
0.0046908
0.00480044
0.00485111
0.00481452
0.00464475
0.00425448
1.73915e-05
0.000455507
0.000315365
0.000426982
0.000383736
0.000510614
0.000521088
0.000630925
0.000685682
0.00078594
0.000873421
0.000975217
0.00108072
0.00119227
0.0013083
0.00143165
0.00155894
0.00169353
0.0018339
0.0019816
0.00213602
0.00229761
0.00246567
0.00264095
0.00282301
0.003011
0.0032003
0.00338457
0.00356091
0.00373256
0.00390176
0.00406822
0.00422851
0.00437624
0.00450044
0.0045861
0.0046128
0.00455225
0.00435888
0.0039462
2.22671e-05
0.000449144
0.000318641
0.000422771
0.000386948
0.000504857
0.000523031
0.000625298
0.000686625
0.000781683
0.000872507
0.000972139
0.00107705
0.00118757
0.00130235
0.0014246
0.00155077
0.00168392
0.00182261
0.00196813
0.00211976
0.00227787
0.00244144
0.00261048
0.00278328
0.0029584
0.00313361
0.00330712
0.00347547
0.00363374
0.00378271
0.00392864
0.00407106
0.00420189
0.00430944
0.00437978
0.00439484
0.00432783
0.00413275
0.00371933
2.85238e-05
0.000440327
0.000323552
0.000416176
0.000392184
0.000496601
0.000527649
0.000617522
0.000688023
0.000775502
0.000869608
0.00096951
0.00107188
0.00118113
0.00129493
0.00141619
0.00154064
0.00167205
0.00180833
0.00195136
0.00209941
0.00225337
0.00241094
0.00257248
0.00273584
0.00290005
0.00306082
0.0032131
0.00335775
0.00349964
0.00364045
0.00377861
0.00390926
0.00402624
0.00412055
0.0041813
0.00419241
0.00412937
0.00394791
0.00356001
3.50397e-05
0.000430582
0.000328314
0.000410232
0.000396211
0.000488691
0.000529121
0.000611287
0.000687723
0.000772636
0.000865826
0.000964571
0.00106591
0.0011737
0.00128638
0.00140589
0.00152861
0.00165752
0.00179124
0.00193075
0.00207465
0.00222335
0.0023749
0.002528
0.00267849
0.00282204
0.00295856
0.00309229
0.00322571
0.00335898
0.00349079
0.00361996
0.00374429
0.0038609
0.00396381
0.00404308
0.00408083
0.0040455
0.00387556
0.00344732
4.29937e-05
0.000418211
0.000334438
0.00040234
0.000402414
0.000479108
0.000532653
0.000603734
0.000683758
0.000769362
0.000861693
0.000957987
0.00105917
0.00116452
0.00127634
0.00139307
0.00151431
0.00163974
0.00177082
0.00190567
0.00204471
0.00218563
0.0023275
0.00246751
0.00260237
0.00272964
0.00285263
0.00297516
0.00309641
0.00321155
0.00331635
0.00340938
0.00349433
0.0035787
0.00366596
0.00374698
0.00382019
0.00391211
0.00409413
0.00450571
5.15052e-05
0.000404224
0.000340682
0.000394835
0.000406104
0.000470095
0.000531754
0.000601374
0.000679881
0.000764243
0.000855777
0.000950603
0.00105064
0.00115403
0.00126407
0.00137827
0.00149699
0.00161879
0.00174584
0.00187565
0.00200867
0.00214115
0.00226974
0.00239164
0.0025086
0.00262442
0.00273993
0.00285254
0.00296013
0.00306084
0.00315599
0.00325006
0.00334893
0.00345174
0.00354908
0.00363639
0.00372283
0.00383556
0.00402772
0.00439998
6.15072e-05
0.0003875
0.000347148
0.000387187
0.000411609
0.000462814
0.00052557
0.00059755
0.000676169
0.000758446
0.00084824
0.000941921
0.00103997
0.00114176
0.0012492
0.00136098
0.00147623
0.00159417
0.00171542
0.00183802
0.00196112
0.00208186
0.00219672
0.00230562
0.00241318
0.00252169
0.00262913
0.0027319
0.0028287
0.00292318
0.00302086
0.00312115
0.00321634
0.00330079
0.00337534
0.00344845
0.00353688
0.00366921
0.00389517
0.00431035
7.21803e-05
0.000369117
0.000353614
0.00037919
0.000411679
0.000459337
0.000519629
0.000592059
0.000670921
0.000752078
0.000840004
0.000931723
0.00102747
0.00112713
0.00123175
0.00134036
0.00145167
0.00156523
0.00168065
0.00179448
0.00190311
0.00200659
0.00210755
0.00220747
0.00230643
0.00240551
0.00250783
0.00261551
0.00272356
0.00282572
0.00291815
0.00299999
0.00307268
0.00313924
0.00320459
0.00327806
0.00337507
0.00352019
0.00375722
0.00417411
8.43581e-05
0.000347393
0.000358662
0.00037614
0.000409373
0.000455726
0.000513884
0.000584417
0.000662581
0.00074396
0.000830219
0.000919766
0.00101278
0.00110985
0.00121127
0.00131601
0.00142202
0.00152836
0.00163423
0.00173709
0.00183494
0.00193025
0.00202606
0.00212328
0.00222098
0.00231699
0.00240881
0.00249469
0.00257511
0.00265467
0.00273898
0.00282604
0.00290776
0.00298012
0.00304759
0.00312094
0.00321675
0.00336026
0.00359509
0.00400807
9.70325e-05
0.000326712
0.000360129
0.000372128
0.00040405
0.00045059
0.000508603
0.000578348
0.000654832
0.000733785
0.000817754
0.000905328
0.000995504
0.00108947
0.00118713
0.00128722
0.00138679
0.00148419
0.00157785
0.00166862
0.00175895
0.00184932
0.00193857
0.0020256
0.00211052
0.0021957
0.00228478
0.00237811
0.00246965
0.00255384
0.00262849
0.00269437
0.00275378
0.00281031
0.00286927
0.00293936
0.0030345
0.00317802
0.00341271
0.00382604
0.000110693
0.000305483
0.000356374
0.000369688
0.00040036
0.000445855
0.000502177
0.000570105
0.000644584
0.000721298
0.000803085
0.000888296
0.000975303
0.00106545
0.00115846
0.00125234
0.00134299
0.001429
0.00151328
0.00159723
0.00168022
0.00176111
0.0018401
0.00191974
0.00200381
0.00209406
0.00218608
0.00227404
0.0023537
0.00242358
0.00248437
0.00253787
0.00258699
0.00263567
0.00268968
0.00275739
0.00285193
0.00299573
0.00323088
0.00364439
0.000124588
0.000286043
0.000348082
0.000366114
0.000395832
0.000439692
0.000494157
0.000560335
0.000632962
0.000707176
0.000786033
0.000868344
0.000951681
0.00103702
0.00112364
0.0012087
0.00128887
0.00136699
0.00144652
0.00152732
0.0016078
0.00168664
0.00176263
0.00183509
0.00190365
0.0019688
0.00203295
0.00210014
0.0021731
0.0022484
0.00231854
0.00237842
0.00242856
0.00247437
0.00252371
0.00258673
0.00267752
0.0028188
0.00305248
0.00346536
0.000138461
0.000267042
0.000335273
0.000361446
0.000391495
0.000433521
0.000485559
0.000549377
0.000619703
0.000690794
0.000765862
0.000844139
0.000922753
0.00100236
0.00108104
0.00115721
0.00123119
0.00130375
0.00137474
0.00144286
0.00150854
0.00157506
0.00164607
0.00172102
0.00179621
0.00186952
0.00193995
0.00200659
0.00206839
0.00212442
0.00217437
0.00221881
0.00225958
0.00230013
0.00234645
0.00240746
0.00249674
0.00263686
0.00286968
0.003282
0.000152271
0.000250666
0.000316908
0.000354384
0.000386612
0.000426667
0.000475599
0.000536265
0.000603703
0.000671594
0.000743139
0.000816676
0.000887242
0.000957426
0.00102935
0.00110189
0.00117217
0.00123985
0.00130606
0.00137097
0.00143387
0.00149433
0.00155198
0.00160706
0.0016606
0.00171486
0.00177345
0.00183829
0.00190488
0.00196587
0.00201677
0.00205776
0.00209278
0.00212786
0.00217016
0.00222866
0.00231641
0.00245547
0.00268748
0.00309925
0.000162789
0.000236903
0.00029906
0.000342779
0.000379047
0.000418835
0.000465528
0.000522868
0.00058563
0.000647103
0.000711482
0.000779063
0.000845704
0.000912179
0.000979319
0.00104591
0.00110916
0.0011687
0.0012254
0.00127873
0.00132825
0.00137502
0.00142157
0.00147138
0.00152789
0.00159228
0.00166068
0.00172677
0.00178502
0.00183265
0.00187015
0.00190045
0.00192794
0.00195788
0.0019967
0.00205287
0.00213914
0.00227729
0.00250878
0.00292037
0.000170189
0.000227572
0.000280656
0.000325286
0.000367791
0.000408967
0.000452827
0.000505832
0.000564225
0.000620285
0.000678534
0.000740686
0.000801932
0.000862234
0.000922357
0.000981383
0.00103688
0.00108855
0.00113833
0.00118713
0.00123415
0.00127895
0.00132184
0.00136372
0.00140599
0.00145074
0.00150085
0.00155731
0.00161451
0.00166458
0.00170346
0.00173251
0.00175702
0.00178377
0.00182005
0.00187456
0.00195984
0.00209739
0.00232849
0.00273991
0.000174596
0.000218348
0.000263327
0.000306022
0.000351769
0.000395133
0.000437109
0.000486269
0.000540751
0.000591535
0.000642661
0.00069768
0.000752032
0.000805265
0.000858311
0.00091033
0.000958829
0.00100291
0.00104376
0.00108202
0.00111772
0.00115227
0.00118904
0.001232
0.00128318
0.00133938
0.0013947
0.00144368
0.00148337
0.0015138
0.00153724
0.00155718
0.00157764
0.00160323
0.00163953
0.00169424
0.00177955
0.00191697
0.00214791
0.00255937
0.000175733
0.00020919
0.000247289
0.000286252
0.000330826
0.000376033
0.000417364
0.000462873
0.000513357
0.000559687
0.000603558
0.000650483
0.000697135
0.000742728
0.000788391
0.00083315
0.000874418
0.000911187
0.000945146
0.00097826
0.00101085
0.00104318
0.00107675
0.0011142
0.00115796
0.00120754
0.0012566
0.001298
0.0013286
0.00134983
0.00136561
0.00138036
0.00139813
0.0014229
0.00145935
0.00151447
0.00160002
0.00173744
0.00196827
0.00237975
0.000173496
0.000199406
0.000231225
0.000265725
0.000307022
0.000351312
0.000392299
0.000435141
0.000481856
0.000523884
0.000561433
0.000600042
0.000638176
0.00067512
0.000712504
0.000749646
0.000783714
0.000813401
0.000839988
0.000865883
0.00089268
0.00092189
0.000955701
0.000995767
0.00103996
0.00108296
0.00111971
0.00114769
0.00116733
0.00118108
0.00119242
0.00120486
0.00122172
0.00124633
0.00128296
0.0013383
0.00142398
0.00156138
0.00179213
0.00220363
0.000167483
0.000188301
0.000215016
0.000245037
0.000282295
0.000322332
0.000359829
0.000399756
0.000443757
0.00048245
0.000514387
0.000545732
0.000576341
0.000604955
0.000633159
0.0006614
0.0006874
0.000710013
0.000730669
0.000752533
0.00077811
0.000808828
0.000844865
0.000883291
0.000919814
0.000950882
0.000974758
0.000991549
0.00100298
0.00101163
0.00102028
0.00103162
0.00104815
0.00107268
0.00110924
0.0011644
0.00124984
0.00138702
0.00161768
0.00202931
0.000158041
0.000174773
0.000197053
0.000222586
0.000255807
0.000292766
0.000326683
0.000360283
0.000397218
0.000430421
0.000457449
0.000484071
0.000510063
0.000532462
0.000551798
0.000570035
0.000586617
0.000601283
0.000616108
0.000634987
0.000660944
0.000693442
0.000728172
0.00076051
0.000787649
0.000808497
0.000823255
0.000833029
0.000839606
0.00084513
0.000851863
0.000861991
0.000877741
0.000901755
0.000937911
0.000992748
0.00107786
0.00121469
0.00144502
0.00185657
0.000145018
0.000158526
0.000176884
0.000197794
0.000225999
0.000258333
0.000287926
0.000316164
0.000347378
0.000376114
0.000398399
0.000418912
0.000438842
0.000455628
0.000468759
0.000480689
0.000492031
0.000502259
0.000512096
0.000523936
0.000540525
0.000563273
0.00059156
0.000620977
0.000646371
0.000664757
0.000676002
0.000681828
0.000684656
0.000686983
0.000691151
0.000699299
0.000713557
0.000736491
0.000771932
0.000826352
0.000911307
0.00104821
0.00127884
0.00169089
0.000128036
0.000138803
0.000153656
0.000170158
0.00019325
0.000220733
0.00024613
0.000269375
0.000294554
0.000317883
0.000334496
0.00034772
0.000359696
0.00036885
0.000373961
0.000377021
0.000379921
0.000383344
0.000388537
0.000397971
0.000414345
0.000437949
0.000464817
0.000489236
0.000507367
0.000518324
0.000523418
0.000524751
0.000524563
0.000524903
0.000527646
0.000534601
0.000547746
0.000569636
0.000604172
0.000657926
0.000742491
0.000879267
0.00110999
0.00152239
0.000107939
0.000115633
0.000126859
0.00013903
0.000157082
0.000179462
0.000200202
0.000218243
0.000237299
0.00025541
0.000267725
0.000276335
0.000283755
0.000289328
0.000291355
0.000290619
0.000289043
0.000287764
0.000288055
0.000292014
0.000302158
0.000318874
0.000338067
0.000354345
0.000364597
0.000368798
0.00036886
0.000367109
0.000365455
0.000365341
0.000367996
0.000374774
0.000387446
0.000408554
0.000442072
0.000494634
0.000577941
0.000713508
0.000943149
0.00135458
8.24218e-05
8.84417e-05
9.69558e-05
0.000105185
0.000118093
0.000135022
0.000150289
0.000162436
0.00017451
0.000185674
0.000190931
0.000190878
0.000188188
0.000183441
0.000175912
0.000166792
0.000159361
0.000156715
0.00016079
0.000171015
0.000184279
0.0001972
0.000207362
0.000213601
0.000216011
0.000215504
0.000213291
0.000210512
0.000208264
0.000207776
0.000210477
0.000217892
0.000231828
0.000254773
0.000290602
0.000345847
0.000432073
0.000570658
0.000803323
0.00121781
5.51558e-05
5.55045e-05
6.06187e-05
6.61954e-05
7.60503e-05
8.86267e-05
9.96337e-05
0.00010677
0.000113991
0.000121657
0.000126077
0.000126385
0.000125263
0.000123166
0.000119079
0.000111845
0.000102277
9.09577e-05
7.84304e-05
6.49127e-05
5.1577e-05
4.03859e-05
3.42888e-05
3.59593e-05
4.53118e-05
5.73935e-05
6.62172e-05
6.82772e-05
6.35649e-05
5.4403e-05
4.41915e-05
3.65055e-05
3.48778e-05
4.29514e-05
6.53121e-05
0.000108825
0.00018523
0.000316009
0.000543132
0.000954826
1.98325e-05
2.19149e-05
2.45174e-05
2.4969e-05
2.70775e-05
3.26476e-05
3.70688e-05
3.79565e-05
3.7537e-05
3.67506e-05
3.19271e-05
2.16123e-05
8.09681e-06
-6.70987e-06
-2.25798e-05
-3.95238e-05
-5.58366e-05
-6.88666e-05
-7.5981e-05
-7.56369e-05
-6.85967e-05
-5.89439e-05
-5.12214e-05
-4.81797e-05
-5.01276e-05
-5.57244e-05
-6.29081e-05
-6.96767e-05
-7.43952e-05
-7.58327e-05
-7.2956e-05
-6.46754e-05
-4.94877e-05
-2.50472e-05
1.25451e-05
6.99487e-05
0.000158925
0.000301071
0.000538365
0.000958841
-2.61352e-05
-1.96832e-05
-1.40744e-05
-1.28335e-05
-1.41804e-05
-1.49469e-05
-1.6737e-05
-2.00514e-05
-2.25583e-05
-2.20792e-05
-2.27873e-05
-2.69461e-05
-3.3806e-05
-4.11464e-05
-4.89739e-05
-5.80262e-05
-6.87216e-05
-8.037e-05
-9.24855e-05
-0.000104868
-0.000117894
-0.000131823
-0.000146983
-0.000163514
-0.000181707
-0.000201694
-0.00022362
-0.000247601
-0.000273944
-0.000303061
-0.00033562
-0.000372562
-0.000415408
-0.000466587
-0.000530186
-0.000613112
-0.000727458
-0.00089519
-0.00115873
-0.00160666
-6.12175e-05
-6.25292e-05
-6.58757e-05
-7.274e-05
-8.15035e-05
-8.77043e-05
-9.34694e-05
-0.000102282
-0.000114175
-0.000127016
-0.000141813
-0.000160625
-0.000182773
-0.000205711
-0.000227171
-0.000245914
-0.000260551
-0.000269499
-0.000272427
-0.00027202
-0.00027209
-0.000275388
-0.000282552
-0.000292434
-0.000303018
-0.000312403
-0.000319309
-0.000323029
-0.000323214
-0.000319621
-0.00031187
-0.000299211
-0.00028026
-0.000252632
-0.000212311
-0.000152492
-6.12972e-05
8.29317e-05
0.00032215
0.000744294
-0.000109174
-0.000110568
-0.00011392
-0.0001194
-0.000127198
-0.000133671
-0.000138944
-0.000145799
-0.000154912
-0.000164073
-0.000172745
-0.000182664
-0.000194682
-0.000208054
-0.000221848
-0.000236258
-0.000251997
-0.000269538
-0.000288836
-0.000309718
-0.000332143
-0.000356261
-0.000382285
-0.000410407
-0.000440751
-0.000473202
-0.000507558
-0.000543675
-0.000581555
-0.000621412
-0.000663733
-0.000709391
-0.000759842
-0.00081749
-0.000886334
-0.000973159
-0.00108983
-0.00125801
-0.00151966
-0.00196273
-0.000161131
-0.000166217
-0.000176064
-0.000189234
-0.000205635
-0.000222384
-0.00023849
-0.000255867
-0.000276125
-0.000298353
-0.000321282
-0.000345008
-0.000369321
-0.000392678
-0.000412537
-0.000426814
-0.000434961
-0.000439233
-0.000443257
-0.000449717
-0.000459434
-0.000471675
-0.000484898
-0.000497415
-0.000507923
-0.000515684
-0.000520381
-0.00052193
-0.000520296
-0.000515338
-0.000506661
-0.000493457
-0.00047429
-0.000446742
-0.000406781
-0.000347595
-0.000257304
-0.00011425
0.000123521
0.000543962
-0.000211969
-0.000215318
-0.000222511
-0.000232051
-0.000243663
-0.000255804
-0.000267393
-0.000279203
-0.000292523
-0.000307301
-0.000322643
-0.000338405
-0.000355006
-0.000372655
-0.000391136
-0.000410325
-0.000430438
-0.000451859
-0.000474851
-0.000499482
-0.000525729
-0.000553596
-0.000583156
-0.000614522
-0.000647616
-0.000682243
-0.000718206
-0.000755399
-0.000793867
-0.000833859
-0.000875892
-0.000920868
-0.000970273
-0.00102654
-0.0010937
-0.00117857
-0.00129303
-0.00145875
-0.00171772
-0.00215791
-0.00028017
-0.000287671
-0.000302147
-0.000321026
-0.000343416
-0.000367649
-0.000392501
-0.000417671
-0.000443584
-0.000469763
-0.000494707
-0.000516769
-0.000534491
-0.00054712
-0.000555702
-0.000562867
-0.000571114
-0.000581687
-0.000594402
-0.000608204
-0.000621857
-0.000634369
-0.000645084
-0.000653596
-0.000659787
-0.000663679
-0.000665313
-0.000664677
-0.000661649
-0.000655939
-0.000646999
-0.000633902
-0.000615121
-0.000588183
-0.000549026
-0.000490823
-0.000401693
-0.000259982
-2.3743e-05
0.000394977
-0.000329098
-0.000330963
-0.000336446
-0.000345139
-0.000357698
-0.00037302
-0.00039002
-0.000407904
-0.000427232
-0.000448954
-0.000472971
-0.000497498
-0.000520224
-0.000539921
-0.000556749
-0.00057168
-0.000586139
-0.000601271
-0.000617831
-0.000636012
-0.000655777
-0.00067698
-0.000699611
-0.000723744
-0.000749425
-0.0007766
-0.000805226
-0.000835294
-0.000866935
-0.000900453
-0.000936427
-0.000975803
-0.00102011
-0.00107182
-0.00113499
-0.00121644
-0.00132807
-0.00149158
-0.00174901
-0.00218844
-0.000416121
-0.000423056
-0.000437267
-0.000457895
-0.000484275
-0.000514182
-0.000545382
-0.000575459
-0.00060334
-0.000627945
-0.0006489
-0.000666099
-0.000680098
-0.000691385
-0.000700493
-0.000707713
-0.000713434
-0.000717917
-0.000721427
-0.000723991
-0.000725571
-0.000725996
-0.000725145
-0.000722875
-0.000719158
-0.000713999
-0.000707448
-0.000699471
-0.000689936
-0.000678527
-0.000664691
-0.000647493
-0.000625431
-0.000596049
-0.000555322
-0.000496457
-0.00040763
-0.000267267
-3.35691e-05
0.000381175
0.00626993
0.00634242
0.00662129
0.00679774
0.00679371
0.00661445
0.00631934
0.00597874
0.0056447
0.00534551
0.00509205
0.00488419
0.00471424
0.00457132
0.00444487
0.00432639
0.00421006
0.00409247
0.00397215
0.00384902
0.00372391
0.00359807
0.0034728
0.00334916
0.00322781
0.00310893
0.00299228
0.00287728
0.00276316
0.00264906
0.00253419
0.00241784
0.00229946
0.00217865
0.00205509
0.0019285
0.00179851
0.00166459
0.00152609
0.00138217
0.00123191
0.00107421
0.000907813
0.000731331
0.000543034
0.000340939
0.000122594
-0.000115171
-0.00037609
-0.000665206
-0.000988262
-0.0013518
-0.00176368
-0.00223225
-0.00276576
-0.00336924
-0.004046
-0.00479375
-0.00557595
-0.00631577
-0.00690359
-0.00723416
-0.0072567
-0.00699854
-0.00658682
-0.00614181
-0.0057488
-0.00545421
-0.00526373
-0.00516071
-0.00513011
-0.00514854
-0.005196
-0.00526184
-0.00533908
-0.00542195
-0.00551011
-0.005602
-0.0056972
-0.00579502
-0.00589601
-0.00599832
-0.0061032
-0.00620906
-0.00631671
-0.00642538
-0.0065361
-0.00664766
-0.0067623
-0.00687611
-0.0069937
-0.00710879
-0.00722474
-0.00733624
-0.00744545
-0.00754607
-0.00764419
-0.00773037
-0.00780833
-0.00787364
0.004951
0.0050247
0.00547689
0.00591816
0.00618354
0.00623331
0.00609221
0.0058323
0.00553012
0.00523926
0.00498667
0.00478089
0.00461826
0.00448723
0.00437425
0.00426802
0.00416118
0.0040501
0.00393388
0.00381326
0.0036899
0.00356555
0.00344177
0.00331963
0.00319973
0.00308217
0.00296669
0.00285269
0.0027394
0.00262599
0.00251166
0.00239573
0.00227765
0.002157
0.00203351
0.00190702
0.0017772
0.00164353
0.00150531
0.0013617
0.00121173
0.00105433
0.000888214
0.000712018
0.000524022
0.000322268
0.000104339
-0.000132922
-0.000393182
-0.000681417
-0.00100331
-0.00136521
-0.00177493
-0.00224049
-0.00276976
-0.00336757
-0.00403659
-0.00477576
-0.00555013
-0.00628345
-0.00686757
-0.0071993
-0.00722703
-0.00697504
-0.00656899
-0.00612846
-0.00573824
-0.00544547
-0.0052562
-0.00515397
-0.00512392
-0.00514284
-0.0051907
-0.00525692
-0.00533462
-0.00541795
-0.00550654
-0.00559883
-0.00569441
-0.00579258
-0.00589388
-0.00599646
-0.00610158
-0.00620765
-0.00631547
-0.00642429
-0.00653513
-0.00664679
-0.00676152
-0.0068754
-0.00699306
-0.00710822
-0.00722423
-0.00733579
-0.00744505
-0.00754574
-0.00764389
-0.00773013
-0.00780812
-0.00787348
0.00475949
0.00486441
0.00535843
0.00584457
0.00615085
0.00623347
0.00611292
0.00585996
0.005554
0.00525347
0.00498962
0.00477365
0.00460389
0.00446936
0.00435571
0.00425022
0.00414426
0.00403339
0.00391641
0.00379419
0.00366874
0.00354225
0.00341659
0.00329298
0.00317205
0.00305382
0.00293789
0.00282356
0.00270998
0.00259625
0.0024816
0.00236536
0.00224706
0.0021263
0.00200278
0.00187604
0.00174572
0.00161137
0.00147245
0.00132821
0.0011777
0.00101986
0.00085339
0.000676912
0.00048873
0.000286865
6.89797e-05
-0.00016807
-0.000427801
-0.000715075
-0.00103527
-0.00139456
-0.00180007
-0.0022594
-0.00277992
-0.0033661
-0.0040195
-0.00473534
-0.00548008
-0.00618507
-0.00675185
-0.00708577
-0.00713508
-0.00691246
-0.00653236
-0.0061124
-0.00573677
-0.0054508
-0.00526327
-0.00516107
-0.00512998
-0.00514737
-0.00519388
-0.00525906
-0.00533587
-0.00541849
-0.00550658
-0.00559849
-0.00569374
-0.00579165
-0.00589278
-0.00599524
-0.0061003
-0.00620635
-0.0063142
-0.00642308
-0.00653401
-0.00664575
-0.00676057
-0.00687455
-0.0069923
-0.00710755
-0.00722364
-0.00733529
-0.00744463
-0.00754539
-0.0076436
-0.00772992
-0.00780797
-0.00787337
0.00416612
0.00425045
0.0047395
0.00524675
0.00559707
0.00574208
0.00569256
0.00550728
0.00525786
0.00500072
0.00476869
0.00457543
0.00442252
0.00430241
0.00420295
0.00411204
0.00402054
0.00392312
0.00381784
0.00370515
0.0035871
0.00346632
0.00334528
0.00322571
0.00310858
0.00299405
0.00288167
0.0027706
0.00265986
0.0025485
0.00243575
0.002321
0.00220388
0.00208406
0.00196128
0.00183525
0.00170563
0.00157198
0.00143368
0.00129
0.00113996
0.00098252
0.000816369
0.000640149
0.000452186
0.000250514
3.28643e-05
-0.000203832
-0.000462972
-0.000749063
-0.00106729
-0.00142352
-0.0018244
-0.0022768
-0.00278749
-0.00335998
-0.00399365
-0.00468344
-0.00539867
-0.00607595
-0.00662507
-0.00695906
-0.00702872
-0.00683581
-0.00648218
-0.00608358
-0.00572223
-0.00544373
-0.00525911
-0.005158
-0.00512685
-0.00514368
-0.00518955
-0.00525425
-0.00533096
-0.00541371
-0.00550198
-0.00559413
-0.0056897
-0.00578794
-0.00588938
-0.00599214
-0.00609749
-0.00620381
-0.00631189
-0.00642096
-0.00653206
-0.00664397
-0.00675891
-0.00687299
-0.00699081
-0.00710614
-0.00722229
-0.00733404
-0.00744344
-0.00754434
-0.00764264
-0.00772915
-0.00780734
-0.00787285
0.00389987
0.00400277
0.00451692
0.00505231
0.00543166
0.00560527
0.00558201
0.00541864
0.00518575
0.00493996
0.0047151
0.00452599
0.00437548
0.0042574
0.00416053
0.00407298
0.00398524
0.00389141
0.003789
0.00367813
0.00356081
0.0034399
0.00331825
0.00319802
0.00308042
0.00296568
0.00285332
0.00274232
0.00263154
0.00251993
0.0024067
0.00229132
0.00217349
0.00205299
0.00192965
0.0018032
0.00167323
0.00153925
0.00140056
0.00125643
0.00110588
0.00094793
0.000781309
0.000604665
0.000416375
0.000214466
-3.25411e-06
-0.00023977
-0.000498378
-0.000783328
-0.0010996
-0.00145265
-0.00184861
-0.00229354
-0.00279354
-0.00335116
-0.00396456
-0.00462815
-0.00531278
-0.00595958
-0.00648718
-0.00681736
-0.00690469
-0.00674349
-0.0064222
-0.00604968
-0.00570726
-0.0054406
-0.00526094
-0.00516161
-0.00513033
-0.00514601
-0.0051906
-0.00525421
-0.00533
-0.00541205
-0.00549983
-0.00559163
-0.00568691
-0.00578496
-0.00588628
-0.005989
-0.00609436
-0.00620076
-0.00630896
-0.0064182
-0.00652941
-0.00664144
-0.00675648
-0.00687069
-0.00698857
-0.00710401
-0.00722022
-0.00733212
-0.0074416
-0.00754271
-0.0076411
-0.0077279
-0.00780629
-0.00787192
0.00357639
0.00367068
0.00418023
0.00471639
0.0051015
0.00528528
0.0052755
0.00512756
0.00491114
0.00468236
0.00447471
0.00430266
0.00416874
0.00406639
0.00398409
0.00390978
0.00383396
0.00375081
0.00365798
0.00355575
0.0034463
0.00333265
0.00321778
0.00310388
0.00299216
0.00288285
0.0027754
0.00266877
0.00256181
0.00245351
0.00234314
0.00223025
0.00211463
0.00199614
0.00187464
0.00174987
0.00162143
0.00148882
0.00135131
0.00120821
0.00105855
0.000901399
0.000735523
0.000559585
0.000372011
0.000170847
-4.60512e-05
-0.000281532
-0.000538814
-0.000821855
-0.00113536
-0.00148436
-0.00187445
-0.00231091
-0.00279905
-0.00334088
-0.00393345
-0.00457017
-0.00522357
-0.00583978
-0.00634673
-0.00667391
-0.00677932
-0.00665113
-0.00636194
-0.00601535
-0.00569142
-0.00543534
-0.00525982
-0.00516099
-0.00512919
-0.0051438
-0.00518719
-0.00524986
-0.00532511
-0.00540691
-0.00549459
-0.00558642
-0.00568183
-0.00578005
-0.00588157
-0.00598453
-0.00609012
-0.00619678
-0.00630521
-0.00641467
-0.00652607
-0.0066383
-0.00675346
-0.00686781
-0.00698573
-0.00710127
-0.00721747
-0.00732952
-0.00743903
-0.00754039
-0.00763885
-0.00772603
-0.00780465
-0.00787045
0.00334719
0.00344141
0.00395006
0.00448184
0.00486068
0.00503861
0.00502635
0.00488217
0.00467671
0.00446535
0.00427997
0.00413278
0.00402368
0.00394346
0.00387889
0.00381757
0.00375076
0.00367383
0.00358561
0.00348745
0.00338224
0.00327322
0.0031632
0.003054
0.00294643
0.00284045
0.00273542
0.00263035
0.00252431
0.00241649
0.00230637
0.00219363
0.0020781
0.00195968
0.00183819
0.0017134
0.00158487
0.00145211
0.0013144
0.00117103
0.00102109
0.000863634
0.000697491
0.000521322
0.000333619
0.000132464
-8.42498e-05
-0.0003192
-0.000575546
-0.000856918
-0.00116775
-0.00151263
-0.00189667
-0.00232434
-0.00280029
-0.00332598
-0.00389744
-0.0045072
-0.0051298
-0.00571629
-0.00620311
-0.00652622
-0.00664696
-0.00654954
-0.00629298
-0.00597376
-0.00566978
-0.00542624
-0.00525664
-0.00515994
-0.00512847
-0.00514285
-0.00518559
-0.00524751
-0.00532218
-0.00540357
-0.00549096
-0.0055826
-0.00567787
-0.005776
-0.00587748
-0.00598047
-0.00608611
-0.00619288
-0.00630142
-0.00641107
-0.00652258
-0.00663497
-0.0067502
-0.00686466
-0.00698258
-0.00709823
-0.00721441
-0.00732661
-0.00743612
-0.00753776
-0.00763626
-0.00772387
-0.0078027
-0.0078687
0.00321208
0.00332825
0.00385245
0.00437771
0.00473072
0.00486854
0.0048131
0.00463647
0.00441663
0.00420762
0.00403554
0.003908
0.00382015
0.0037587
0.00370833
0.00365664
0.0035961
0.00352368
0.00343964
0.00334648
0.00324759
0.00314611
0.00304427
0.00294322
0.00284319
0.00274375
0.00264412
0.00254348
0.0024411
0.00233649
0.00222931
0.0021194
0.00200661
0.00189082
0.0017718
0.00164926
0.00152276
0.0013918
0.00125571
0.00111379
0.000965177
0.000808933
0.000643956
0.000468928
0.000282384
8.24917e-05
-0.00013284
-0.000366092
-0.000620336
-0.000898905
-0.00120591
-0.00154554
-0.00192232
-0.00234012
-0.00280278
-0.00331128
-0.00386088
-0.00444341
-0.00503549
-0.0055928
-0.00605929
-0.00637733
-0.00651171
-0.00644498
-0.00622244
-0.0059316
-0.00564823
-0.00541756
-0.00525422
-0.00515939
-0.00512792
-0.00514147
-0.00518318
-0.00524411
-0.00531786
-0.00539867
-0.00548576
-0.00557729
-0.0056725
-0.00577068
-0.00587225
-0.00597541
-0.00608123
-0.00618825
-0.006297
-0.0064069
-0.0065186
-0.00663119
-0.00674653
-0.00686115
-0.00697907
-0.00709485
-0.00721098
-0.00732336
-0.00743286
-0.00753481
-0.00763334
-0.0077214
-0.00780046
-0.00786669
0.00302432
0.00307777
0.00352832
0.00398888
0.00430093
0.0044299
0.00439855
0.00426887
0.00410474
0.0039492
0.0038222
0.00372812
0.00366065
0.00360807
0.00355941
0.00350731
0.00344782
0.00337969
0.00330354
0.0032211
0.00313437
0.00304504
0.00295424
0.00286245
0.00276972
0.00267578
0.00258022
0.00248266
0.00238276
0.0022803
0.0021751
0.00206704
0.00195596
0.0018417
0.00172397
0.00160249
0.00147682
0.00134649
0.00121089
0.00106934
0.000921034
0.00076505
0.000600333
0.000425621
0.000239455
4.0145e-05
-0.000174409
-0.000406461
-0.000658979
-0.000935016
-0.00123833
-0.0015727
-0.00194213
-0.00234989
-0.00279903
-0.00329011
-0.00381785
-0.00437356
-0.00493582
-0.00546473
-0.00591112
-0.00622365
-0.00637023
-0.00633267
-0.00614395
-0.00588218
-0.0056202
-0.00540365
-0.00524797
-0.00515591
-0.00512499
-0.00513829
-0.00517943
-0.00523969
-0.00531298
-0.00539352
-0.00548043
-0.00557192
-0.0056672
-0.00576546
-0.00586713
-0.00597042
-0.00607638
-0.00618359
-0.00629252
-0.00640264
-0.00651449
-0.00662728
-0.0067427
-0.00685746
-0.00697538
-0.00709128
-0.00720736
-0.00731992
-0.0074294
-0.00753166
-0.00763024
-0.00771876
-0.00779807
-0.00786455
0.00490001
0.00481986
0.00433229
0.00382672
0.00346336
0.00327742
0.00324742
0.0033121