/*--------------------------------*- C++ -*----------------------------------*\
| =========                 |                                                 |
| \\      /  F ield         | OpenFOAM: The Open Source CFD Toolbox           |
|  \\    /   O peration     | Version:  2312                                  |
|   \\  /    A nd           | Website:  www.openfoam.com                      |
|    \\/     M anipulation  |                                                 |
\*---------------------------------------------------------------------------*/
FoamFile
{
    version     2.0;
    format      ascii;
    arch        "LSB;label=32;scalar=64";
    class       surfaceScalarField;
    location    "1";
    object      phi;
}
// * * * * * * * * * * * * * * * * * * * * * * * * * * * * * * * * * * * * * //

dimensions      [0 3 -1 0 0 0 0];

oriented        oriented;

internalField   nonuniform List<scalar> 
11020
(
3.87752e-06
-6.59613e-08
3.87738e-06
5.21927e-08
3.87762e-06
-4.53778e-08
3.87771e-06
3.63697e-08
3.87754e-06
-3.02985e-08
3.87774e-06
2.5095e-08
3.87722e-06
-1.99148e-08
3.87745e-06
1.71038e-08
3.87675e-06
-1.28231e-08
3.87696e-06
1.14275e-08
3.87614e-06
-7.60244e-09
3.87628e-06
8.17735e-09
3.87541e-06
-3.91578e-09
3.87542e-06
6.30064e-09
3.87455e-06
-1.50822e-09
3.87441e-06
5.2074e-09
3.87361e-06
-6.40184e-11
3.87334e-06
4.67018e-09
3.87259e-06
8.83946e-10
3.87223e-06
4.27955e-09
3.87148e-06
1.41055e-09
3.87101e-06
3.95204e-09
3.87025e-06
1.82778e-09
3.86967e-06
3.79288e-09
3.86887e-06
2.29814e-09
3.8682e-06
3.7678e-09
3.86737e-06
2.69273e-09
3.86662e-06
3.75752e-09
3.86573e-06
2.97975e-09
3.86485e-06
3.78262e-09
3.8638e-06
3.31906e-09
3.86265e-06
4.1126e-09
3.86125e-06
4.14278e-09
3.85968e-06
5.2196e-09
3.85788e-06
5.72564e-09
3.85591e-06
6.89888e-09
3.85371e-06
7.57185e-09
3.85128e-06
8.88164e-09
3.84856e-06
1.00574e-08
1.18481e-08
3.84559e-06
4.18296e-06
-6.30633e-08
4.18755e-06
4.76005e-08
4.184e-06
-4.18273e-08
4.1881e-06
3.2278e-08
4.18455e-06
-2.67528e-08
4.18805e-06
2.15971e-08
4.18461e-06
-1.6474e-08
4.18753e-06
1.41764e-08
4.18442e-06
-9.70889e-09
4.18676e-06
9.08496e-09
4.18401e-06
-4.84834e-09
4.1858e-06
6.389e-09
4.18344e-06
-1.55547e-09
4.18467e-06
5.06388e-09
4.18269e-06
4.73284e-10
4.18346e-06
4.44199e-09
4.18184e-06
1.54806e-09
4.18224e-06
4.27375e-09
4.18092e-06
2.20993e-09
4.181e-06
4.19429e-09
4.17974e-06
2.67579e-09
4.17957e-06
4.12027e-09
4.17836e-06
3.03531e-09
4.178e-06
4.14977e-09
4.17687e-06
3.43361e-09
4.17635e-06
4.28377e-09
4.17524e-06
3.8055e-09
4.17455e-06
4.45057e-09
4.17335e-06
4.17204e-09
4.17239e-06
4.74937e-09
4.17096e-06
4.74964e-09
4.16961e-06
5.45961e-09
4.16794e-06
5.81197e-09
4.16648e-06
6.6784e-09
4.16496e-06
7.24772e-09
4.1637e-06
8.15824e-09
4.16245e-06
8.82009e-09
4.16155e-06
9.77941e-09
4.16098e-06
1.06354e-08
1.17168e-08
4.16111e-06
4.51653e-06
-5.95283e-08
4.52065e-06
4.34801e-08
4.51688e-06
-3.80577e-08
4.52046e-06
2.86948e-08
4.51709e-06
-2.33865e-08
4.52002e-06
1.86751e-08
4.51691e-06
-1.3367e-08
4.51925e-06
1.18318e-08
4.51655e-06
-7.00933e-09
4.51833e-06
7.30653e-09
4.51603e-06
-2.54914e-09
4.51731e-06
5.11776e-09
4.51539e-06
3.57607e-10
4.51618e-06
4.27206e-09
4.51457e-06
2.08756e-09
4.51498e-06
4.03025e-09
4.51363e-06
2.89827e-09
4.51375e-06
4.15047e-09
4.51259e-06
3.37438e-09
4.51249e-06
4.29848e-09
4.51138e-06
3.78483e-09
4.51104e-06
4.45383e-09
4.50992e-06
4.155e-09
4.50941e-06
4.66275e-09
4.50831e-06
4.53239e-09
4.50766e-06
4.93792e-09
4.50656e-06
4.90569e-09
4.50578e-06
5.22722e-09
4.50462e-06
5.3331e-09
4.50354e-06
5.83211e-09
4.50205e-06
6.2336e-09
4.5006e-06
6.9143e-09
4.49893e-06
7.47926e-09
4.49748e-06
8.13159e-09
4.49606e-06
8.66812e-09
4.4949e-06
9.31655e-09
4.49379e-06
9.92551e-09
4.49296e-06
1.06152e-08
4.49237e-06
1.12279e-08
1.18074e-08
4.49228e-06
4.87784e-06
-5.64224e-08
4.88107e-06
4.02535e-08
4.87759e-06
-3.45826e-08
4.88049e-06
2.58022e-08
4.87748e-06
-2.0381e-08
4.8799e-06
1.62605e-08
4.87708e-06
-1.05488e-08
4.87896e-06
9.95314e-09
4.87654e-06
-4.59365e-09
4.87787e-06
5.97686e-09
4.87592e-06
-5.98158e-10
4.87667e-06
4.36153e-09
4.87522e-06
1.80884e-09
4.87542e-06
4.07417e-09
4.87444e-06
3.0664e-09
4.87426e-06
4.21486e-09
4.87346e-06
3.694e-09
4.87305e-06
4.55794e-09
4.87221e-06
4.21996e-09
4.87166e-06
4.85029e-09
4.87079e-06
4.65523e-09
4.8701e-06
5.13614e-09
4.86919e-06
5.06926e-09
4.86839e-06
5.46025e-09
4.86743e-06
5.49976e-09
4.86649e-06
5.87301e-09
4.86536e-06
6.04081e-09
4.86414e-06
6.44206e-09
4.86273e-06
6.74284e-09
4.86136e-06
7.2046e-09
4.85994e-06
7.65668e-09
4.85858e-06
8.26546e-09
4.85727e-06
8.79068e-09
4.85606e-06
9.34815e-09
4.85493e-06
9.7939e-09
4.85399e-06
1.02609e-08
4.85325e-06
1.06638e-08
4.85279e-06
1.1068e-08
4.85264e-06
1.13783e-08
1.16067e-08
4.85285e-06
5.26758e-06
-5.33589e-08
5.27074e-06
3.70935e-08
5.26716e-06
-3.09965e-08
5.26999e-06
2.29738e-08
5.26693e-06
-1.73216e-08
5.26938e-06
1.38114e-08
5.26649e-06
-7.66126e-09
5.26832e-06
8.12533e-09
5.26585e-06
-2.13087e-09
5.26713e-06
4.69948e-09
5.2652e-06
1.33111e-09
5.2658e-06
3.76035e-09
5.26442e-06
3.18736e-09
5.26446e-06
4.04171e-09
5.2636e-06
3.92409e-09
5.26323e-06
4.5855e-09
5.26237e-06
4.54989e-09
5.26188e-06
5.05213e-09
5.26101e-06
5.08766e-09
5.26041e-06
5.45189e-09
5.25951e-06
5.55254e-09
5.25878e-06
5.8704e-09
5.25782e-06
6.02785e-09
5.25695e-06
6.33306e-09
5.25593e-06
6.51244e-09
5.25498e-06
6.82361e-09
5.25392e-06
7.10751e-09
5.25281e-06
7.54957e-09
5.25145e-06
8.10171e-09
5.24995e-06
8.70228e-09
5.24836e-06
9.24385e-09
5.24689e-06
9.74331e-09
5.24554e-06
1.01379e-08
5.24439e-06
1.04981e-08
5.24339e-06
1.07896e-08
5.24259e-06
1.10651e-08
5.24196e-06
1.12966e-08
5.24155e-06
1.14699e-08
5.24139e-06
1.15453e-08
1.15477e-08
5.24145e-06
5.68825e-06
-5.01477e-08
5.69158e-06
3.37659e-08
5.68782e-06
-2.72409e-08
5.69068e-06
2.01158e-08
5.68753e-06
-1.41745e-08
5.69001e-06
1.13373e-08
5.68716e-06
-4.81703e-09
5.68881e-06
6.47626e-09
5.68652e-06
1.59581e-10
5.68746e-06
3.76251e-09
5.686e-06
2.78769e-09
5.68609e-06
3.67306e-09
5.6853e-06
3.97472e-09
5.68484e-06
4.50003e-09
5.68399e-06
4.77609e-09
5.68342e-06
5.15013e-09
5.68258e-06
5.3921e-09
5.68195e-06
5.68541e-09
5.68111e-06
5.92953e-09
5.68039e-06
6.16942e-09
5.67951e-06
6.43178e-09
5.67869e-06
6.68644e-09
5.67775e-06
6.96865e-09
5.6768e-06
7.28941e-09
5.67565e-06
7.66288e-09
5.67438e-06
8.08825e-09
5.67294e-06
8.55318e-09
5.67146e-06
9.02606e-09
5.67011e-06
9.44927e-09
5.66886e-06
9.95666e-09
5.66763e-06
1.04721e-08
5.66644e-06
1.09352e-08
5.66524e-06
1.13326e-08
5.66415e-06
1.15881e-08
5.66319e-06
1.17517e-08
5.66243e-06
1.18247e-08
5.66189e-06
1.18378e-08
5.6616e-06
1.17618e-08
5.66154e-06
1.16005e-08
1.13502e-08
5.66174e-06
6.14247e-06
-4.67437e-08
6.14599e-06
3.02449e-08
6.14206e-06
-2.33096e-08
6.145e-06
1.71672e-08
6.14171e-06
-1.08849e-08
6.14422e-06
8.8301e-09
6.14139e-06
-1.98747e-09
6.14295e-06
4.91857e-09
6.14072e-06
2.39406e-09
6.14142e-06
3.0544e-09
6.14026e-06
3.95209e-09
6.14015e-06
3.78627e-09
6.13936e-06
4.75628e-09
6.13884e-06
5.02001e-09
6.1379e-06
5.72126e-09
6.13728e-06
5.77425e-09
6.13636e-06
6.30363e-09
6.13568e-06
6.36535e-09
6.13477e-06
6.84015e-09
6.13401e-06
6.93158e-09
6.13307e-06
7.3718e-09
6.1322e-06
7.55642e-09
6.13118e-06
7.98772e-09
6.1302e-06
8.26894e-09
6.12917e-06
8.6957e-09
6.12817e-06
9.08772e-09
6.12705e-06
9.67473e-09
6.12579e-06
1.02863e-08
6.1242e-06
1.10363e-08
6.12258e-06
1.15741e-08
6.12104e-06
1.20117e-08
6.11971e-06
1.22697e-08
6.11856e-06
1.24792e-08
6.11754e-06
1.26072e-08
6.11664e-06
1.26569e-08
6.11589e-06
1.25749e-08
6.11532e-06
1.24047e-08
6.11498e-06
1.21042e-08
6.11487e-06
1.17104e-08
1.11111e-08
6.11511e-06
6.63299e-06
-4.31679e-08
6.63663e-06
2.65966e-08
6.63261e-06
-1.92811e-08
6.63558e-06
1.41962e-08
6.63229e-06
-7.59794e-09
6.6346e-06
6.52092e-09
6.63202e-06
5.87859e-10
6.63323e-06
3.71344e-09
6.63141e-06
4.21397e-09
6.63153e-06
2.93014e-09
6.63086e-06
4.62421e-09
6.63057e-06
4.07329e-09
6.62958e-06
5.7484e-09
6.62908e-06
5.51896e-09
6.62805e-06
6.75885e-09
6.62745e-06
6.37314e-09
6.62641e-06
7.33544e-09
6.62576e-06
7.02218e-09
6.62472e-06
7.87674e-09
6.62397e-06
7.68671e-09
6.6229e-06
8.44007e-09
6.62204e-06
8.41451e-09
6.62094e-06
9.08771e-09
6.61997e-06
9.23416e-09
6.61874e-06
9.92952e-09
6.61745e-06
1.03776e-08
6.61589e-06
1.12309e-08
6.61441e-06
1.1772e-08
6.61296e-06
1.24864e-08
6.61172e-06
1.28136e-08
6.6105e-06
1.32342e-08
6.60938e-06
1.33868e-08
6.60826e-06
1.36004e-08
6.60728e-06
1.359e-08
6.60635e-06
1.35786e-08
6.6056e-06
1.33287e-08
6.60497e-06
1.30311e-08
6.60455e-06
1.25328e-08
6.60412e-06
1.21313e-08
1.13524e-08
6.60388e-06
7.1627e-06
-3.94344e-08
7.16644e-06
2.28552e-08
7.16232e-06
-1.5158e-08
7.16532e-06
1.1194e-08
7.16208e-06
-4.3611e-09
7.16418e-06
4.42091e-09
7.16181e-06
2.95343e-09
7.16269e-06
2.83683e-09
7.16136e-06
5.54862e-09
7.16099e-06
3.2974e-09
7.16036e-06
5.25371e-09
7.15997e-06
4.4614e-09
7.15903e-06
6.6857e-09
7.15842e-06
6.13329e-09
7.15742e-06
7.75701e-09
7.15674e-06
7.05842e-09
7.15572e-06
8.35414e-09
7.15497e-06
7.77384e-09
7.15392e-06
8.9198e-09
7.15308e-06
8.52687e-09
7.15199e-06
9.52967e-09
7.151e-06
9.41195e-09
7.14974e-06
1.03415e-08
7.1485e-06
1.0475e-08
7.14699e-06
1.14376e-08
7.14557e-06
1.18034e-08
7.14414e-06
1.26619e-08
7.14291e-06
1.29951e-08
7.14175e-06
1.36463e-08
7.14067e-06
1.38941e-08
7.13954e-06
1.43696e-08
7.13843e-06
1.44924e-08
7.13725e-06
1.47858e-08
7.13608e-06
1.47544e-08
7.1349e-06
1.4765e-08
7.13376e-06
1.446e-08
7.13267e-06
1.41298e-08
7.13178e-06
1.34192e-08
7.13163e-06
1.22761e-08
1.06931e-08
7.13229e-06
7.73475e-06
-3.55821e-08
7.73852e-06
1.90833e-08
7.7344e-06
-1.10384e-08
7.73725e-06
8.34934e-09
7.73432e-06
-1.43283e-09
7.73588e-06
2.86471e-09
7.73426e-06
4.56945e-09
7.73389e-06
3.20709e-09
7.73366e-06
5.78104e-09
7.73285e-06
4.10495e-09
7.7323e-06
5.80493e-09
7.73148e-06
5.27797e-09
7.73085e-06
7.31866e-09
7.72991e-06
7.0691e-09
7.72919e-06
8.4814e-09
7.72821e-06
8.04051e-09
7.72741e-06
9.15367e-09
7.72637e-06
8.8098e-09
7.72549e-06
9.80263e-09
7.72439e-06
9.62741e-09
7.72342e-06
1.05011e-08
7.72222e-06
1.06099e-08
7.72107e-06
1.14861e-08
7.71961e-06
1.19419e-08
7.71814e-06
1.29052e-08
7.71657e-06
1.33719e-08
7.71518e-06
1.40546e-08
7.71389e-06
1.4282e-08
7.71284e-06
1.47014e-08
7.71195e-06
1.47809e-08
7.71136e-06
1.49641e-08
7.71109e-06
1.47612e-08
7.71121e-06
1.46574e-08
7.71166e-06
1.4314e-08
7.71239e-06
1.40342e-08
7.71325e-06
1.35944e-08
7.7142e-06
1.3179e-08
7.71502e-06
1.25984e-08
7.71518e-06
1.2123e-08
1.12322e-08
7.71464e-06
8.35252e-06
-3.16423e-08
8.35629e-06
1.5319e-08
8.35223e-06
-6.98192e-09
8.35483e-06
5.74855e-09
8.35228e-06
1.11862e-09
8.35324e-06
1.90475e-09
8.35266e-06
5.15171e-09
8.3515e-06
4.36325e-09
8.35127e-06
6.01008e-09
8.3503e-06
5.07385e-09
8.34981e-06
6.30134e-09
8.34876e-06
6.31953e-09
8.34822e-06
7.85922e-09
8.34716e-06
8.13658e-09
8.34652e-06
9.1191e-09
8.34541e-06
9.14934e-09
8.34467e-06
9.89713e-09
8.34352e-06
9.96021e-09
8.34264e-06
1.06818e-08
8.34136e-06
1.09006e-08
8.34027e-06
1.15962e-08
8.33877e-06
1.21073e-08
8.33735e-06
1.29077e-08
8.33577e-06
1.35211e-08
8.33446e-06
1.4217e-08
8.33315e-06
1.46775e-08
8.33209e-06
1.5116e-08
8.33104e-06
1.53313e-08
8.33023e-06
1.55126e-08
8.32958e-06
1.54266e-08
8.32933e-06
1.52197e-08
8.32924e-06
1.48456e-08
8.3294e-06
1.44985e-08
8.32957e-06
1.41482e-08
8.32984e-06
1.37601e-08
8.33015e-06
1.32896e-08
8.33053e-06
1.27984e-08
8.33092e-06
1.22051e-08
8.33149e-06
1.15589e-08
1.07429e-08
8.33198e-06
9.01968e-06
-2.76744e-08
9.02336e-06
1.16414e-08
9.01953e-06
-3.15177e-09
9.02158e-06
3.69154e-09
9.01974e-06
2.96254e-09
9.01942e-06
2.22053e-09
9.01956e-06
5.01534e-09
9.01886e-06
5.06529e-09
9.01829e-06
6.57511e-09
9.01727e-06
6.09722e-09
9.01659e-06
6.98029e-09
9.01558e-06
7.33122e-09
9.01488e-06
8.55862e-09
9.01389e-06
9.13117e-09
9.0131e-06
9.90367e-09
9.01205e-06
1.02046e-08
9.01114e-06
1.07979e-08
9.01004e-06
1.10676e-08
9.00904e-06
1.16831e-08
9.00784e-06
1.20962e-08
9.00658e-06
1.28592e-08
9.00507e-06
1.36145e-08
9.00355e-06
1.44249e-08
9.00201e-06
1.50597e-08
9.00065e-06
1.55787e-08
8.99944e-06
1.58869e-08
8.99847e-06
1.60881e-08
8.99782e-06
1.59808e-08
8.99749e-06
1.58429e-08
8.99734e-06
1.55784e-08
8.99727e-06
1.52906e-08
8.99719e-06
1.49213e-08
8.99712e-06
1.45677e-08
8.99709e-06
1.41856e-08
8.99711e-06
1.37349e-08
8.99722e-06
1.31831e-08
8.99736e-06
1.26554e-08
8.99749e-06
1.20779e-08
8.99756e-06
1.14923e-08
1.09463e-08
8.99735e-06
9.74016e-06
-2.37354e-08
9.74365e-06
8.15188e-09
9.7403e-06
2.01485e-10
9.7416e-06
2.38956e-09
9.74091e-06
3.65858e-09
9.7398e-06
3.32666e-09
9.73962e-06
5.19914e-09
9.739e-06
5.67843e-09
9.73849e-06
7.08967e-09
9.73748e-06
7.10497e-09
9.7367e-06
7.76007e-09
9.73565e-06
8.37753e-09
9.73485e-06
9.3628e-09
9.73386e-06
1.01239e-08
9.73298e-06
1.07783e-08
9.73193e-06
1.12549e-08
9.7309e-06
1.18303e-08
9.72965e-06
1.23171e-08
9.72834e-06
1.29962e-08
9.72679e-06
1.36486e-08
9.72525e-06
1.43894e-08
9.72384e-06
1.50338e-08
9.72265e-06
1.56058e-08
9.72169e-06
1.602e-08
9.721e-06
1.62688e-08
9.72052e-06
1.63699e-08
9.72021e-06
1.64004e-08
9.71976e-06
1.64315e-08
9.71925e-06
1.63505e-08
9.71872e-06
1.61111e-08
9.71821e-06
1.57961e-08
9.71776e-06
1.53687e-08
9.71744e-06
1.48969e-08
9.71731e-06
1.43081e-08
9.71726e-06
1.37845e-08
9.71721e-06
1.32323e-08
9.7172e-06
1.26747e-08
9.71718e-06
1.20926e-08
9.71713e-06
1.15406e-08
1.09551e-08
9.71712e-06
1.05183e-05
-1.9932e-08
1.05214e-05
4.9979e-09
1.05196e-05
2.02531e-09
1.05193e-05
2.69008e-09
1.05189e-05
4.1094e-09
1.05177e-05
4.48242e-09
1.05171e-05
5.77244e-09
1.05165e-05
6.34707e-09
1.05161e-05
7.47637e-09
1.05152e-05
7.93612e-09
1.05144e-05
8.64337e-09
1.05133e-05
9.44502e-09
1.05124e-05
1.02805e-08
1.05114e-05
1.1135e-08
1.05104e-05
1.17493e-08
1.05093e-05
1.23539e-08
1.05082e-05
1.29167e-08
1.0507e-05
1.35607e-08
1.05056e-05
1.43762e-08
1.0504e-05
1.51935e-08
1.05025e-05
1.59084e-08
1.05011e-05
1.64475e-08
1.04999e-05
1.68561e-08
1.04986e-05
1.72313e-08
1.04975e-05
1.743e-08
1.04964e-05
1.74741e-08
1.04954e-05
1.73471e-08
1.04948e-05
1.70211e-08
1.04946e-05
1.65477e-08
1.04947e-05
1.61e-08
1.04948e-05
1.56646e-08
1.04949e-05
1.52203e-08
1.0495e-05
1.47873e-08
1.0495e-05
1.43601e-08
1.04949e-05
1.38538e-08
1.04949e-05
1.32923e-08
1.04948e-05
1.27125e-08
1.04948e-05
1.21118e-08
1.04948e-05
1.15128e-08
1.09237e-08
1.04949e-05
1.13586e-05
-1.63143e-08
1.13613e-05
2.25479e-09
1.13602e-05
3.15287e-09
1.13593e-05
3.54663e-09
1.13588e-05
4.62793e-09
1.13581e-05
5.16323e-09
1.13575e-05
6.39699e-09
1.13567e-05
7.15066e-09
1.1356e-05
8.21093e-09
1.13551e-05
8.81972e-09
1.13541e-05
9.59892e-09
1.13531e-05
1.04943e-08
1.1352e-05
1.12955e-08
1.1351e-05
1.21866e-08
1.13499e-05
1.28365e-08
1.13487e-05
1.35485e-08
1.13474e-05
1.42558e-08
1.13458e-05
1.51031e-08
1.13443e-05
1.59127e-08
1.13429e-05
1.6622e-08
1.13416e-05
1.71841e-08
1.13404e-05
1.76258e-08
1.13394e-05
1.78957e-08
1.13386e-05
1.80475e-08
1.1338e-05
1.80151e-08
1.13376e-05
1.78234e-08
1.13374e-05
1.76035e-08
1.13371e-05
1.73065e-08
1.13367e-05
1.69593e-08
1.13362e-05
1.65422e-08
1.13358e-05
1.61235e-08
1.13354e-05
1.55899e-08
1.13351e-05
1.5049e-08
1.1335e-05
1.44831e-08
1.1335e-05
1.39119e-08
1.13349e-05
1.33137e-08
1.13349e-05
1.27091e-08
1.1335e-05
1.20883e-08
1.1335e-05
1.14709e-08
1.08279e-08
1.13351e-05
1.2266e-05
-1.29734e-08
1.22682e-05
1.42613e-11
1.22675e-05
3.84559e-09
1.22666e-05
4.52128e-09
1.22659e-05
5.3146e-09
1.22652e-05
5.83333e-09
1.22645e-05
7.07128e-09
1.22638e-05
7.93659e-09
1.22629e-05
9.04762e-09
1.2262e-05
9.75037e-09
1.2261e-05
1.05984e-08
1.22599e-05
1.15595e-08
1.22588e-05
1.23798e-08
1.22577e-05
1.33285e-08
1.22565e-05
1.40678e-08
1.2255e-05
1.49695e-08
1.22535e-05
1.58088e-08
1.22519e-05
1.66574e-08
1.22506e-05
1.72898e-08
1.22494e-05
1.78284e-08
1.22483e-05
1.81859e-08
1.22475e-05
1.84533e-08
1.22469e-05
1.85548e-08
1.22464e-05
1.85521e-08
1.22459e-05
1.845e-08
1.22454e-05
1.83792e-08
1.22448e-05
1.81503e-08
1.22443e-05
1.78474e-08
1.22438e-05
1.74817e-08
1.22433e-05
1.70162e-08
1.22429e-05
1.64829e-08
1.22427e-05
1.58629e-08
1.22425e-05
1.52151e-08
1.22424e-05
1.4589e-08
1.22423e-05
1.39666e-08
1.22423e-05
1.33298e-08
1.22423e-05
1.26976e-08
1.22423e-05
1.20589e-08
1.22424e-05
1.14306e-08
1.07911e-08
1.22424e-05
1.32459e-05
-9.96402e-09
1.32476e-05
-1.66177e-09
1.32473e-05
4.17921e-09
1.32463e-05
5.44403e-09
1.32455e-05
6.13421e-09
1.32448e-05
6.60283e-09
1.3244e-05
7.81899e-09
1.32432e-05
8.73272e-09
1.32423e-05
9.92042e-09
1.32414e-05
1.07009e-08
1.32403e-05
1.16519e-08
1.32392e-05
1.26739e-08
1.32381e-05
1.35316e-08
1.32368e-05
1.45838e-08
1.32354e-05
1.55115e-08
1.32338e-05
1.65244e-08
1.32323e-05
1.73194e-08
1.3231e-05
1.8001e-08
1.32297e-05
1.85682e-08
1.32285e-05
1.90416e-08
1.32273e-05
1.93622e-08
1.32261e-05
1.96021e-08
1.3225e-05
1.96561e-08
1.3224e-05
1.95526e-08
1.32233e-05
1.91956e-08
1.32228e-05
1.88349e-08
1.32225e-05
1.84377e-08
1.32224e-05
1.79872e-08
1.32224e-05
1.75067e-08
1.32224e-05
1.69838e-08
1.32225e-05
1.64472e-08
1.32224e-05
1.58807e-08
1.32223e-05
1.53097e-08
1.32223e-05
1.46589e-08
1.32222e-05
1.40004e-08
1.32222e-05
1.33278e-08
1.32223e-05
1.26645e-08
1.32223e-05
1.20022e-08
1.32224e-05
1.13574e-08
1.07401e-08
1.32225e-05
1.43042e-05
-7.38113e-09
1.4305e-05
-2.55265e-09
1.43051e-05
4.11413e-09
1.43043e-05
6.20762e-09
1.43035e-05
7.01994e-09
1.43026e-05
7.49136e-09
1.43017e-05
8.66276e-09
1.43009e-05
9.58009e-09
1.43e-05
1.08099e-08
1.4299e-05
1.16619e-08
1.4298e-05
1.27098e-08
1.42968e-05
1.38535e-08
1.42954e-05
1.49358e-08
1.42938e-05
1.61571e-08
1.42922e-05
1.71337e-08
1.42907e-05
1.8043e-08
1.42894e-05
1.86275e-08
1.42882e-05
1.91495e-08
1.42873e-05
1.94775e-08
1.42866e-05
1.97338e-08
1.42861e-05
1.98493e-08
1.42858e-05
1.99249e-08
1.42855e-05
1.99237e-08
1.42852e-05
1.98988e-08
1.42845e-05
1.98812e-08
1.42837e-05
1.96456e-08
1.42829e-05
1.92651e-08
1.42821e-05
1.87382e-08
1.42815e-05
1.81195e-08
1.42811e-05
1.74347e-08
1.42808e-05
1.67416e-08
1.42806e-05
1.60322e-08
1.42806e-05
1.53244e-08
1.42806e-05
1.464e-08
1.42806e-05
1.39641e-08
1.42807e-05
1.32817e-08
1.42808e-05
1.26055e-08
1.42808e-05
1.19256e-08
1.42809e-05
1.1279e-08
1.06042e-08
1.4281e-05
1.54469e-05
-5.26191e-09
1.54463e-05
-2.00468e-09
1.54472e-05
3.25622e-09
1.54468e-05
6.56489e-09
1.54459e-05
7.92209e-09
1.54449e-05
8.53098e-09
1.5444e-05
9.59081e-09
1.54431e-05
1.04825e-08
1.54421e-05
1.17499e-08
1.5441e-05
1.28286e-08
1.54396e-05
1.40859e-08
1.5438e-05
1.54374e-08
1.54364e-05
1.65169e-08
1.5435e-05
1.75585e-08
1.54337e-05
1.83992e-08
1.54326e-05
1.91967e-08
1.54315e-05
1.97402e-08
1.54304e-05
2.02316e-08
1.54293e-05
2.05921e-08
1.54282e-05
2.08562e-08
1.54271e-05
2.09517e-08
1.5426e-05
2.0962e-08
1.54251e-05
2.08481e-08
1.54243e-05
2.06496e-08
1.54239e-05
2.03129e-08
1.54238e-05
1.98069e-08
1.54237e-05
1.92977e-08
1.54237e-05
1.87162e-08
1.54238e-05
1.80957e-08
1.54238e-05
1.7432e-08
1.54238e-05
1.67566e-08
1.54237e-05
1.60549e-08
1.54237e-05
1.53495e-08
1.54237e-05
1.46291e-08
1.54238e-05
1.39172e-08
1.54238e-05
1.32043e-08
1.54239e-05
1.25073e-08
1.5424e-05
1.18183e-08
1.54242e-05
1.11514e-08
1.04856e-08
1.54243e-05
1.66808e-05
-3.59898e-09
1.66798e-05
-9.67953e-10
1.66805e-05
2.53987e-09
1.66804e-05
6.66026e-09
1.66796e-05
8.73946e-09
1.66784e-05
9.67523e-09
1.66772e-05
1.08131e-08
1.66759e-05
1.18137e-08
1.66745e-05
1.3108e-08
1.66732e-05
1.4143e-08
1.66719e-05
1.53343e-08
1.66707e-05
1.66712e-08
1.66695e-05
1.77401e-08
1.66683e-05
1.87924e-08
1.6667e-05
1.96024e-08
1.66659e-05
2.03556e-08
1.66648e-05
2.08728e-08
1.66637e-05
2.13197e-08
1.66627e-05
2.15391e-08
1.66619e-05
2.16797e-08
1.66612e-05
2.16632e-08
1.66606e-05
2.15625e-08
1.66601e-05
2.13315e-08
1.66597e-05
2.10167e-08
1.66594e-05
2.06223e-08
1.6659e-05
2.02243e-08
1.66587e-05
1.96523e-08
1.66584e-05
1.89949e-08
1.66582e-05
1.82924e-08
1.66581e-05
1.75517e-08
1.6658e-05
1.6804e-08
1.6658e-05
1.60423e-08
1.66581e-05
1.52762e-08
1.66582e-05
1.45367e-08
1.66583e-05
1.3811e-08
1.66584e-05
1.30871e-08
1.66585e-05
1.23796e-08
1.66587e-05
1.16833e-08
1.66588e-05
1.10118e-08
1.03395e-08
1.6659e-05
1.8013e-05
-2.23288e-09
1.80121e-05
-7.6751e-12
1.8012e-05
2.62825e-09
1.80122e-05
6.47905e-09
1.80116e-05
9.29609e-09
1.80105e-05
1.07539e-08
1.80093e-05
1.20851e-08
1.80079e-05
1.31823e-08
1.80065e-05
1.45278e-08
1.80051e-05
1.55289e-08
1.80038e-05
1.66483e-08
1.80025e-05
1.79172e-08
1.80013e-05
1.89433e-08
1.80002e-05
1.99633e-08
1.7999e-05
2.07424e-08
1.79979e-05
2.14557e-08
1.79969e-05
2.19167e-08
1.79959e-05
2.22994e-08
1.79949e-05
2.25334e-08
1.79939e-05
2.26746e-08
1.79929e-05
2.26271e-08
1.7992e-05
2.24671e-08
1.79912e-05
2.21372e-08
1.79906e-05
2.1676e-08
1.79902e-05
2.09986e-08
1.79901e-05
2.02643e-08
1.79903e-05
1.95137e-08
1.79905e-05
1.87617e-08
1.79908e-05
1.80336e-08
1.7991e-05
1.73184e-08
1.79912e-05
1.66163e-08
1.79913e-05
1.59231e-08
1.79914e-05
1.51861e-08
1.79915e-05
1.44345e-08
1.79916e-05
1.36897e-08
1.79918e-05
1.29437e-08
1.79919e-05
1.22198e-08
1.79921e-05
1.15183e-08
1.79923e-05
1.08441e-08
1.01736e-08
1.79924e-05
1.94516e-05
-1.15897e-09
1.94506e-05
9.59029e-10
1.945e-05
3.24123e-09
1.94502e-05
6.34006e-09
1.94499e-05
9.56548e-09
1.9449e-05
1.16719e-08
1.94477e-05
1.33258e-08
1.94463e-05
1.45784e-08
1.94449e-05
1.59971e-08
1.94434e-05
1.69629e-08
1.94421e-05
1.79891e-08
1.94409e-05
1.91473e-08
1.94397e-05
2.01414e-08
1.94385e-05
2.10967e-08
1.94374e-05
2.18522e-08
1.94364e-05
2.25081e-08
1.94354e-05
2.29368e-08
1.94344e-05
2.3241e-08
1.94336e-05
2.33019e-08
1.9433e-05
2.32841e-08
1.94326e-05
2.30868e-08
1.94323e-05
2.27858e-08
1.94321e-05
2.23411e-08
1.94319e-05
2.18104e-08
1.94317e-05
2.12358e-08
1.94314e-05
2.05222e-08
1.94312e-05
1.97322e-08
1.94311e-05
1.89181e-08
1.9431e-05
1.81143e-08
1.9431e-05
1.73241e-08
1.9431e-05
1.65517e-08
1.94312e-05
1.57831e-08
1.94313e-05
1.5025e-08
1.94315e-05
1.4264e-08
1.94317e-05
1.35128e-08
1.94319e-05
1.2766e-08
1.9432e-05
1.20371e-08
1.94322e-05
1.13334e-08
1.94324e-05
1.06593e-08
9.9889e-09
1.94326e-05
2.1005e-05
-3.36547e-10
2.1004e-05
1.96838e-09
2.10033e-05
3.91443e-09
2.1003e-05
6.62929e-09
2.10028e-05
9.75624e-09
2.10021e-05
1.23432e-08
2.10011e-05
1.43855e-08
2.09998e-05
1.58833e-08
2.09984e-05
1.73871e-08
2.09969e-05
1.84649e-08
2.09955e-05
1.93793e-08
2.09942e-05
2.04186e-08
2.0993e-05
2.13602e-08
2.09919e-05
2.22048e-08
2.09909e-05
2.2888e-08
2.09899e-05
2.34585e-08
2.0989e-05
2.38072e-08
2.09883e-05
2.40311e-08
2.09875e-05
2.40541e-08
2.09868e-05
2.39779e-08
2.09862e-05
2.37023e-08
2.09857e-05
2.32899e-08
2.09853e-05
2.26941e-08
2.09852e-05
2.1972e-08
2.09853e-05
2.1121e-08
2.09855e-05
2.03154e-08
2.09857e-05
1.95276e-08
2.09859e-05
1.87638e-08
2.0986e-05
1.8014e-08
2.0986e-05
1.72314e-08
2.09862e-05
1.64424e-08
2.09863e-05
1.56336e-08
2.09865e-05
1.48483e-08
2.09867e-05
1.40671e-08
2.09869e-05
1.33033e-08
2.09871e-05
1.25526e-08
2.09873e-05
1.18276e-08
2.09875e-05
1.11239e-08
2.09877e-05
1.04513e-08
9.78869e-09
2.09879e-05
2.26823e-05
2.92612e-10
2.26813e-05
2.95063e-09
2.26805e-05
4.70505e-09
2.268e-05
7.17892e-09
2.26796e-05
1.00847e-08
2.26791e-05
1.28514e-08
2.26783e-05
1.52057e-08
2.26772e-05
1.70017e-08
2.2676e-05
1.86047e-08
2.26746e-05
1.98517e-08
2.26732e-05
2.08167e-08
2.26718e-05
2.17827e-08
2.26706e-05
2.2599e-08
2.26695e-05
2.32917e-08
2.26685e-05
2.38404e-08
2.26677e-05
2.42945e-08
2.26669e-05
2.45559e-08
2.26663e-05
2.46878e-08
2.26657e-05
2.45852e-08
2.26653e-05
2.43749e-08
2.26651e-05
2.39702e-08
2.26649e-05
2.34249e-08
2.26649e-05
2.27174e-08
2.2665e-05
2.19332e-08
2.2665e-05
2.11063e-08
2.2665e-05
2.02869e-08
2.2665e-05
1.94967e-08
2.26651e-05
1.86915e-08
2.26652e-05
1.78884e-08
2.26654e-05
1.70779e-08
2.26656e-05
1.62538e-08
2.26658e-05
1.54373e-08
2.2666e-05
1.46342e-08
2.26662e-05
1.38405e-08
2.26664e-05
1.30689e-08
2.26667e-05
1.23157e-08
2.26669e-05
1.15913e-08
2.26671e-05
1.08907e-08
2.26674e-05
1.02222e-08
9.56485e-09
2.26676e-05
2.44934e-05
8.0186e-10
2.44926e-05
3.79749e-09
2.44916e-05
5.65718e-09
2.44908e-05
7.971e-09
2.44901e-05
1.07935e-08
2.44895e-05
1.34729e-08
2.44889e-05
1.57961e-08
2.44882e-05
1.77624e-08
2.44872e-05
1.95889e-08
2.44859e-05
2.10921e-08
2.44846e-05
2.21623e-08
2.44833e-05
2.30838e-08
2.44821e-05
2.37739e-08
2.44811e-05
2.42674e-08
2.44803e-05
2.46522e-08
2.44797e-05
2.4975e-08
2.44791e-05
2.51189e-08
2.44787e-05
2.51209e-08
2.44783e-05
2.49271e-08
2.44781e-05
2.45862e-08
2.4478e-05
2.40289e-08
2.44781e-05
2.33789e-08
2.44782e-05
2.26357e-08
2.44783e-05
2.18477e-08
2.44783e-05
2.10603e-08
2.44784e-05
2.02305e-08
2.44785e-05
1.93929e-08
2.44786e-05
1.85524e-08
2.44788e-05
1.77101e-08
2.4479e-05
1.68651e-08
2.44792e-05
1.60255e-08
2.44795e-05
1.51875e-08
2.44797e-05
1.43689e-08
2.448e-05
1.35764e-08
2.44803e-05
1.27948e-08
2.44805e-05
1.2046e-08
2.44808e-05
1.13293e-08
2.44811e-05
1.06362e-08
2.44813e-05
9.97631e-09
9.3151e-09
2.44816e-05
2.64492e-05
1.20877e-09
2.64484e-05
4.5218e-09
2.64475e-05
6.63138e-09
2.64465e-05
8.89258e-09
2.64456e-05
1.17638e-08
2.64445e-05
1.45226e-08
2.64435e-05
1.68313e-08
2.64425e-05
1.8784e-08
2.64416e-05
2.04696e-08
2.64407e-05
2.19494e-08
2.64399e-05
2.29859e-08
2.64391e-05
2.3851e-08
2.64384e-05
2.4555e-08
2.64376e-05
2.49939e-08
2.6437e-05
2.52652e-08
2.64366e-05
2.53923e-08
2.64363e-05
2.53911e-08
2.64362e-05
2.52307e-08
2.64362e-05
2.49201e-08
2.64363e-05
2.44859e-08
2.64364e-05
2.39635e-08
2.64364e-05
2.33879e-08
2.64364e-05
2.26568e-08
2.64364e-05
2.18489e-08
2.64364e-05
2.09885e-08
2.64366e-05
2.00759e-08
2.64368e-05
1.91914e-08
2.6437e-05
1.83163e-08
2.64373e-05
1.74459e-08
2.64376e-05
1.65809e-08
2.64379e-05
1.57268e-08
2.64382e-05
1.48851e-08
2.64385e-05
1.40637e-08
2.64388e-05
1.32627e-08
2.64391e-05
1.24893e-08
2.64394e-05
1.17422e-08
2.64397e-05
1.1027e-08
2.644e-05
1.03411e-08
2.64403e-05
9.68906e-09
9.05447e-09
2.64405e-05
2.8561e-05
1.54409e-09
2.85603e-05
5.15555e-09
2.85594e-05
7.58745e-09
2.85585e-05
9.83232e-09
2.85575e-05
1.2735e-08
2.85565e-05
1.55063e-08
2.85555e-05
1.77926e-08
2.85546e-05
1.97641e-08
2.85537e-05
2.12957e-08
2.85529e-05
2.27425e-08
2.85522e-05
2.37274e-08
2.85516e-05
2.44927e-08
2.8551e-05
2.514e-08
2.85504e-05
2.55303e-08
2.85499e-05
2.57632e-08
2.85495e-05
2.57836e-08
2.85492e-05
2.57047e-08
2.8549e-05
2.54364e-08
2.85489e-05
2.50386e-08
2.85489e-05
2.44856e-08
2.8549e-05
2.38273e-08
2.85494e-05
2.30353e-08
2.85498e-05
2.22159e-08
2.85503e-05
2.13846e-08
2.85508e-05
2.05367e-08
2.85511e-05
1.96877e-08
2.85515e-05
1.88362e-08
2.85519e-05
1.7962e-08
2.85522e-05
1.7085e-08
2.85526e-05
1.62141e-08
2.85529e-05
1.53551e-08
2.85533e-05
1.45134e-08
2.85537e-05
1.36947e-08
2.85541e-05
1.2901e-08
2.85544e-05
1.21368e-08
2.85547e-05
1.14016e-08
2.85551e-05
1.0699e-08
2.85554e-05
1.00272e-08
2.85557e-05
9.38916e-09
8.79762e-09
2.85559e-05
3.08414e-05
1.81571e-09
3.08409e-05
5.70749e-09
3.084e-05
8.48837e-09
3.0839e-05
1.07546e-08
3.08381e-05
1.36914e-08
3.08371e-05
1.64576e-08
3.08363e-05
1.86663e-08
3.08354e-05
2.06565e-08
3.08346e-05
2.20348e-08
3.08339e-05
2.34136e-08
3.08334e-05
2.43121e-08
3.08329e-05
2.49723e-08
3.08325e-05
2.55235e-08
3.08322e-05
2.58035e-08
3.0832e-05
2.59657e-08
3.08319e-05
2.58621e-08
3.0832e-05
2.56929e-08
3.08321e-05
2.5319e-08
3.08323e-05
2.48467e-08
3.08325e-05
2.42096e-08
3.08329e-05
2.34898e-08
3.08332e-05
2.26864e-08
3.08336e-05
2.18466e-08
3.0834e-05
2.09841e-08
3.08344e-05
2.01152e-08
3.08349e-05
1.92467e-08
3.08353e-05
1.83753e-08
3.08358e-05
1.75002e-08
3.08362e-05
1.6621e-08
3.08367e-05
1.57508e-08
3.08372e-05
1.48954e-08
3.08376e-05
1.40613e-08
3.08381e-05
1.3253e-08
3.08385e-05
1.24737e-08
3.08389e-05
1.17382e-08
3.08393e-05
1.10219e-08
3.08396e-05
1.03369e-08
3.084e-05
9.68279e-09
3.08403e-05
9.06215e-09
8.48419e-09
3.08406e-05
3.33039e-05
1.99639e-09
3.33034e-05
6.23508e-09
3.33026e-05
9.28554e-09
3.33017e-05
1.1656e-08
3.33008e-05
1.45674e-08
3.32999e-05
1.7354e-08
3.32992e-05
1.93955e-08
3.32984e-05
2.141e-08
3.32978e-05
2.26478e-08
3.32973e-05
2.39793e-08
3.32968e-05
2.4803e-08
3.32964e-05
2.53846e-08
3.3296e-05
2.58354e-08
3.32959e-05
2.5999e-08
3.32958e-05
2.60665e-08
3.32958e-05
2.58305e-08
3.32959e-05
2.55273e-08
3.32963e-05
2.50049e-08
3.32967e-05
2.43977e-08
3.32973e-05
2.36339e-08
3.3298e-05
2.27663e-08
3.32988e-05
2.19355e-08
3.32995e-05
2.11352e-08
3.33001e-05
2.03378e-08
3.33007e-05
1.95273e-08
3.33013e-05
1.87e-08
3.33018e-05
1.78627e-08
3.33023e-05
1.69853e-08
3.33028e-05
1.61028e-08
3.33033e-05
1.52154e-08
3.33039e-05
1.43571e-08
3.33044e-05
1.35353e-08
3.33049e-05
1.27445e-08
3.33054e-05
1.19861e-08
3.33059e-05
1.12603e-08
3.33063e-05
1.05668e-08
3.33068e-05
9.90649e-09
3.33072e-05
9.27793e-09
3.33075e-05
8.68211e-09
8.10755e-09
3.33079e-05
3.5963e-05
2.16626e-09
3.59625e-05
6.71359e-09
3.59617e-05
1.00431e-08
3.59609e-05
1.24724e-08
3.59602e-05
1.53153e-08
3.59594e-05
1.80983e-08
3.59588e-05
2.00141e-08
3.59582e-05
2.20191e-08
3.59577e-05
2.31157e-08
3.59574e-05
2.43214e-08
3.59572e-05
2.50144e-08
3.59571e-05
2.54324e-08
3.59572e-05
2.57163e-08
3.59576e-05
2.56836e-08
3.5958e-05
2.5595e-08
3.59587e-05
2.5196e-08
3.59594e-05
2.47729e-08
3.59602e-05
2.41694e-08
3.59611e-05
2.35654e-08
3.59618e-05
2.28815e-08
3.59623e-05
2.22783e-08
3.59627e-05
2.15346e-08
3.59631e-05
2.0753e-08
3.59635e-05
1.99277e-08
3.5964e-05
1.90615e-08
3.59645e-05
1.81599e-08
3.59652e-05
1.72314e-08
3.59658e-05
1.62955e-08
3.59665e-05
1.54232e-08
3.59671e-05
1.46177e-08
3.59677e-05
1.38089e-08
3.59682e-05
1.30251e-08
3.59687e-05
1.22684e-08
3.59691e-05
1.15416e-08
3.59695e-05
1.08447e-08
3.59699e-05
1.01784e-08
3.59703e-05
9.54293e-09
3.59706e-05
8.93767e-09
3.59709e-05
8.36296e-09
7.82606e-09
3.59712e-05
3.88347e-05
1.93153e-09
3.88333e-05
8.05947e-09
3.88332e-05
1.01557e-08
3.88322e-05
1.35379e-08
3.88321e-05
1.54015e-08
3.88312e-05
1.89661e-08
3.88311e-05
2.01298e-08
3.88304e-05
2.27532e-08
3.88302e-05
2.32623e-08
3.88297e-05
2.48483e-08
3.88296e-05
2.50914e-08
3.88293e-05
2.57738e-08
3.88293e-05
2.5696e-08
3.88291e-05
2.58322e-08
3.88293e-05
2.54633e-08
3.88293e-05
2.51751e-08
3.88296e-05
2.45041e-08
3.88298e-05
2.39242e-08
3.88303e-05
2.30587e-08
3.88309e-05