/*--------------------------------*- C++ -*----------------------------------*\
| =========                 |                                                 |
| \\      /  F ield         | OpenFOAM: The Open Source CFD Toolbox           |
|  \\    /   O peration     | Version:  2312                                  |
|   \\  /    A nd           | Website:  www.openfoam.com                      |
|    \\/     M anipulation  |                                                 |
\*---------------------------------------------------------------------------*/
FoamFile
{
    version     2.0;
    format      ascii;
    arch        "LSB;label=32;scalar=64";
    class       volVectorField;
    location    "1";
    object      U;
}
// * * * * * * * * * * * * * * * * * * * * * * * * * * * * * * * * * * * * * //

dimensions      [0 1 -1 0 0 0 0];

internalField   nonuniform List<vector> 
5600
(
(0.971772 -0.000839477 0)
(1.02741 0.000728688 0)
(0.974342 -0.000681742 0)
(1.02499 0.000595368 0)
(0.976935 -0.000537218 0)
(1.02253 0.000482304 0)
(0.979249 -0.000420515 0)
(1.02018 0.000386 0)
(0.981342 -0.000324768 0)
(1.01795 0.000302613 0)
(0.983227 -0.000235967 0)
(1.01583 0.000252319 0)
(0.984906 -0.000156009 0)
(1.01384 0.000223559 0)
(0.986385 -8.93209e-05 0)
(1.01198 0.000209615 0)
(0.987676 -3.72876e-05 0)
(1.01024 0.000212268 0)
(0.988789 7.21252e-06 0)
(1.00862 0.00022038 0)
(0.989722 4.03635e-05 0)
(1.0071 0.000228751 0)
(0.990481 7.63664e-05 0)
(1.00568 0.000246777 0)
(0.991077 0.000125514 0)
(1.00435 0.000277783 0)
(0.991523 0.000181156 0)
(1.0031 0.000314863 0)
(0.99183 0.0002372 0)
(1.0019 0.000355613 0)
(0.991994 0.000301125 0)
(1.00074 0.000426613 0)
(0.992011 0.000431445 0)
(0.999603 0.000620502 0)
(0.991917 0.000722282 0)
(0.998538 0.000979307 0)
(0.991783 0.00115518 0)
(0.997558 0.00150173 0)
(0.991674 0.00185145 0)
(0.997024 0.00242065 0)
(0.987385 -0.000857411 0)
(1.01102 0.000718543 0)
(0.989828 -0.000678095 0)
(1.00914 0.000579622 0)
(0.992016 -0.000519682 0)
(1.00734 0.000461601 0)
(0.993689 -0.000388017 0)
(1.00575 0.000362904 0)
(0.994984 -0.000280772 0)
(1.0044 0.00027974 0)
(0.995962 -0.000181429 0)
(1.00322 0.000232967 0)
(0.996676 -9.36914e-05 0)
(1.00222 0.000212395 0)
(0.997163 -2.2559e-05 0)
(1.00134 0.000210796 0)
(0.99747 3.39507e-05 0)
(1.00058 0.000227961 0)
(0.997625 8.46505e-05 0)
(0.999894 0.00025205 0)
(0.997644 0.000129567 0)
(0.999263 0.000279811 0)
(0.997547 0.000178948 0)
(0.998669 0.000320933 0)
(0.997353 0.000247267 0)
(0.998096 0.000379593 0)
(0.997078 0.000327986 0)
(0.997533 0.000451072 0)
(0.996732 0.000421641 0)
(0.996967 0.000546032 0)
(0.996326 0.000553185 0)
(0.996404 0.000708587 0)
(0.995898 0.000795949 0)
(0.995876 0.00104039 0)
(0.995474 0.00123956 0)
(0.995384 0.00157005 0)
(0.995106 0.00185847 0)
(0.995075 0.00229936 0)
(0.995089 0.00277318 0)
(0.995442 0.00343697 0)
(0.996953 -0.000769831 0)
(1.00199 0.000608534 0)
(0.997658 -0.000580471 0)
(1.00138 0.000469639 0)
(0.998336 -0.000419165 0)
(1.00082 0.000357281 0)
(0.998696 -0.000285895 0)
(1.00035 0.000263984 0)
(0.99888 -0.000182107 0)
(0.999952 0.00018889 0)
(0.998933 -8.71404e-05 0)
(0.999601 0.000151639 0)
(0.998893 -4.97975e-06 0)
(0.999285 0.000143565 0)
(0.998771 6.11284e-05 0)
(0.998978 0.000153469 0)
(0.998593 0.000107011 0)
(0.998669 0.000180934 0)
(0.998365 0.000147449 0)
(0.998342 0.000215088 0)
(0.998084 0.000196358 0)
(0.99799 0.000256954 0)
(0.997757 0.000252079 0)
(0.997614 0.000311438 0)
(0.997387 0.000321323 0)
(0.997209 0.000382683 0)
(0.996982 0.000405534 0)
(0.996778 0.000470907 0)
(0.996547 0.000511683 0)
(0.996325 0.00060017 0)
(0.996091 0.000691134 0)
(0.995867 0.000839151 0)
(0.995647 0.000990708 0)
(0.995434 0.00117874 0)
(0.995224 0.00136582 0)
(0.995031 0.00159631 0)
(0.994882 0.00184543 0)
(0.994814 0.00214543 0)
(0.994891 0.00246379 0)
(0.995217 0.00281008 0)
(0.99956 -0.000761669 0)
(0.99985 0.000597825 0)
(0.999441 -0.000560097 0)
(0.999756 0.000457568 0)
(0.999504 -0.00039664 0)
(0.999621 0.000345433 0)
(0.999437 -0.000256194 0)
(0.999449 0.000254395 0)
(0.999306 -0.000147836 0)
(0.999266 0.000183586 0)
(0.999146 -5.13931e-05 0)
(0.999066 0.000152195 0)
(0.998955 3.01213e-05 0)
(0.998856 0.000152409 0)
(0.998735 9.94783e-05 0)
(0.998618 0.000173342 0)
(0.998491 0.00014845 0)
(0.998358 0.000213195 0)
(0.99822 0.000199253 0)
(0.998069 0.000261286 0)
(0.997914 0.000257614 0)
(0.997745 0.000318192 0)
(0.997575 0.000328501 0)
(0.997389 0.000390451 0)
(0.997201 0.000416245 0)
(0.996998 0.000484729 0)
(0.996794 0.000529129 0)
(0.996578 0.000612007 0)
(0.996366 0.000683012 0)
(0.996154 0.00079371 0)
(0.995954 0.000909633 0)
(0.995753 0.00107474 0)
(0.995557 0.00124627 0)
(0.995363 0.00144861 0)
(0.995189 0.00165492 0)
(0.995046 0.00190078 0)
(0.994965 0.00216686 0)
(0.994976 0.00247539 0)
(0.995134 0.00280016 0)
(0.995531 0.00314706 0)
(0.999965 -0.000694514 0)
(0.999578 0.000524411 0)
(0.999686 -0.000480238 0)
(0.999571 0.000381472 0)
(0.999624 -0.000318388 0)
(0.999507 0.00027113 0)
(0.999507 -0.00017515 0)
(0.999375 0.000185622 0)
(0.999329 -7.05854e-05 0)
(0.999209 0.000124956 0)
(0.999153 2.00983e-05 0)
(0.999024 0.000110974 0)
(0.99894 8.86856e-05 0)
(0.998812 0.000134292 0)
(0.998706 0.000132579 0)
(0.998568 0.000173513 0)
(0.998449 0.000179967 0)
(0.99831 0.000222793 0)
(0.998174 0.000237789 0)
(0.998026 0.000280137 0)
(0.997874 0.000303921 0)
(0.99771 0.00035085 0)
(0.997545 0.00038506 0)
(0.997363 0.000439806 0)
(0.997181 0.000486649 0)
(0.996984 0.00055233 0)
(0.99679 0.000615897 0)
(0.996584 0.000705383 0)
(0.996387 0.000810139 0)
(0.996185 0.000947913 0)
(0.996001 0.00109409 0)
(0.995818 0.00125852 0)
(0.995646 0.00142694 0)
(0.995475 0.001614 0)
(0.995329 0.00180918 0)
(0.995216 0.00202351 0)
(0.995166 0.00224498 0)
(0.9952 0.00247878 0)
(0.995372 0.00271023 0)
(0.995763 0.00293936 0)
(1 -0.000678547 0)
(0.999566 0.000504908 0)
(0.999713 -0.00044806 0)
(0.99957 0.000360541 0)
(0.999625 -0.000285099 0)
(0.999507 0.000248082 0)
(0.999517 -0.00013401 0)
(0.999384 0.000170065 0)
(0.999332 -2.7881e-05 0)
(0.999214 0.000113976 0)
(0.999165 5.63833e-05 0)
(0.999045 0.000112383 0)
(0.998955 0.000118788 0)
(0.998821 0.000150829 0)
(0.998711 0.000164702 0)
(0.99857 0.00019998 0)
(0.998446 0.000221285 0)
(0.998307 0.000257845 0)
(0.998171 0.000285934 0)
(0.998023 0.000325002 0)
(0.997879 0.000362422 0)
(0.997716 0.000409092 0)
(0.99756 0.000457983 0)
(0.99738 0.000516677 0)
(0.99721 0.000581937 0)
(0.997015 0.000660445 0)
(0.996835 0.00075033 0)
(0.996643 0.000856985 0)
(0.996473 0.000979021 0)
(0.996294 0.00112092 0)
(0.996129 0.00128038 0)
(0.995955 0.00145094 0)
(0.995798 0.00162589 0)
(0.995644 0.00180716 0)
(0.995522 0.00199465 0)
(0.99543 0.00218844 0)
(0.995406 0.00238494 0)
(0.995462 0.00258123 0)
(0.995659 0.00277386 0)
(0.99607 0.002961 0)
(1.00001 -0.000615201 0)
(0.999574 0.000435841 0)
(0.999717 -0.00037093 0)
(0.999586 0.000293242 0)
(0.999625 -0.000211675 0)
(0.999509 0.000181156 0)
(0.999521 -6.22605e-05 0)
(0.999397 0.000115844 0)
(0.999341 3.76927e-05 0)
(0.999217 8.05345e-05 0)
(0.999171 9.96067e-05 0)
(0.999063 0.000109815 0)
(0.998974 0.000139357 0)
(0.998839 0.000164411 0)
(0.998724 0.000197465 0)
(0.998582 0.000222307 0)
(0.998458 0.000256577 0)
(0.998315 0.000285865 0)
(0.998185 0.00032632 0)
(0.998033 0.000362706 0)
(0.997897 0.00041164 0)
(0.997731 0.000459923 0)
(0.997585 0.000520252 0)
(0.997407 0.000585441 0)
(0.99725 0.000665068 0)
(0.997066 0.000757287 0)
(0.996902 0.00086769 0)
(0.996721 0.000994027 0)
(0.99656 0.00113689 0)
(0.996394 0.00128936 0)
(0.996251 0.00145083 0)
(0.996098 0.0016167 0)
(0.995959 0.00178773 0)
(0.995822 0.00196111 0)
(0.995717 0.00213773 0)
(0.995641 0.00231328 0)
(0.995629 0.00248571 0)
(0.995691 0.00264851 0)
(0.99589 0.00279861 0)
(0.996302 0.00293087 0)
(1.00001 -0.000587363 0)
(0.999585 0.000402979 0)
(0.999713 -0.000326248 0)
(0.999604 0.000260505 0)
(0.99963 -0.000166162 0)
(0.999519 0.000150121 0)
(0.999518 -1.5898e-05 0)
(0.999414 9.89747e-05 0)
(0.999352 7.90183e-05 0)
(0.999229 7.4787e-05 0)
(0.999169 0.000119849 0)
(0.999071 0.000119457 0)
(0.998985 0.000169161 0)
(0.998854 0.000186805 0)
(0.998739 0.000235651 0)
(0.9986 0.000250954 0)
(0.998479 0.000299973 0)
(0.998337 0.000321296 0)
(0.998211 0.000377515 0)
(0.998058 0.000408112 0)
(0.997926 0.000473247 0)
(0.997764 0.000519796 0)
(0.99762 0.000596519 0)
(0.997452 0.000662403 0)
(0.997298 0.000758078 0)
(0.997129 0.000854789 0)
(0.996974 0.000988075 0)
(0.996818 0.00112991 0)
(0.996677 0.00130075 0)
(0.996531 0.00146871 0)
(0.996393 0.00164604 0)
(0.99625 0.00180907 0)
(0.996121 0.00197874 0)
(0.996 0.002136 0)
(0.995907 0.00229489 0)
(0.995842 0.00243413 0)
(0.995833 0.00256455 0)
(0.995893 0.00266863 0)
(0.996077 0.00276048 0)
(0.996464 0.00283445 0)
(1.00002 -0.00052579 0)
(0.999598 0.000337355 0)
(0.999707 -0.000252664 0)
(0.99962 0.00020038 0)
(0.999639 -9.95873e-05 0)
(0.999537 9.61281e-05 0)
(0.999518 4.14577e-05 0)
(0.99943 6.50629e-05 0)
(0.999364 0.000124696 0)
(0.999246 7.77281e-05 0)
(0.999169 0.00013721 0)
(0.999073 0.00012436 0)
(0.998986 0.000204518 0)
(0.998863 0.000201067 0)
(0.998753 0.00027757 0)
(0.99862 0.000270895 0)
(0.998503 0.000349005 0)
(0.998367 0.000348791 0)
(0.998242 0.0004348 0)
(0.998096 0.000446207 0)
(0.997963 0.000540836 0)
(0.99781 0.000573676 0)
(0.997664 0.000681683 0)
(0.99751 0.00074079 0)
(0.997361 0.000871016 0)
(0.997217 0.000968729 0)
(0.997081 0.00113736 0)
(0.996947 0.00127499 0)
(0.996812 0.00145955 0)
(0.996678 0.00160556 0)
(0.996546 0.0017942 0)
(0.996415 0.00195576 0)
(0.99629 0.00216053 0)
(0.996171 0.00233822 0)
(0.996067 0.00253996 0)
(0.995986 0.0026964 0)
(0.995948 0.00285458 0)
(0.995982 0.00294752 0)
(0.996154 0.00299092 0)
(0.996583 0.00287205 0)
(1.00003 -0.000488366 0)
(0.99961 0.000296029 0)
(0.999708 -0.000199841 0)
(0.999631 0.000159953 0)
(0.999649 -4.99394e-05 0)
(0.999555 6.91556e-05 0)
(0.999526 8.2505e-05 0)
(0.999442 5.83829e-05 0)
(0.999381 0.000138552 0)
(0.999263 9.35308e-05 0)
(0.999181 0.000156826 0)
(0.999072 0.000143301 0)
(0.99899 0.000231164 0)
(0.998869 0.000228472 0)
(0.998771 0.000311232 0)
(0.99864 0.000305431 0)
(0.998532 0.000390077 0)
(0.998398 0.000391785 0)
(0.998278 0.000485577 0)
(0.998137 0.000501574 0)
(0.998005 0.000603934 0)
(0.997862 0.000644459 0)
(0.997723 0.000763284 0)
(0.997582 0.000839855 0)
(0.997447 0.000992685 0)
(0.99732 0.00110915 0)
(0.997196 0.00128008 0)
(0.997073 0.00140724 0)
(0.996951 0.00158042 0)
(0.996835 0.00171806 0)
(0.996729 0.00190144 0)
(0.996635 0.00205504 0)
(0.996549 0.00224539 0)
(0.996462 0.00239944 0)
(0.996374 0.00257498 0)
(0.996291 0.00271138 0)
(0.996217 0.00285682 0)
(0.996123 0.00294321 0)
(0.99594 0.00298196 0)
(0.995527 0.00285935 0)
(1.00003 -0.000428636 0)
(0.999631 0.000234354 0)
(0.999708 -0.0001299 0)
(0.999645 0.000110088 0)
(0.999656 7.91096e-07 0)
(0.999576 3.76181e-05 0)
(0.999536 0.000104891 0)
(0.999452 8.61035e-05 0)
(0.999392 0.000137024 0)
(0.999284 0.000117851 0)
(0.999197 0.000165636 0)
(0.999081 0.000175485 0)
(0.998997 0.000243741 0)
(0.998881 0.000268687 0)
(0.99879 0.000330486 0)
(0.998665 0.000353566 0)
(0.998561 0.000417448 0)
(0.998433 0.000448853 0)
(0.998314 0.000524042 0)
(0.998181 0.00057233 0)
(0.998051 0.00066112 0)
(0.997918 0.000737841 0)
(0.99779 0.000849435 0)
(0.997668 0.000960979 0)
(0.99755 0.00110452 0)
(0.997435 0.00123884 0)
(0.997318 0.00138717 0)
(0.997205 0.0015206 0)
(0.997096 0.00167084 0)
(0.996995 0.00181054 0)
(0.996899 0.0019602 0)
(0.996804 0.00208651 0)
(0.996704 0.00220935 0)
(0.996601 0.00230921 0)
(0.996502 0.00241371 0)
(0.996414 0.00250687 0)
(0.996327 0.00260086 0)
(0.996213 0.00267186 0)
(0.996019 0.00273125 0)
(0.995645 0.00277116 0)
(1.00003 -0.000384589 0)
(0.999658 0.00018935 0)
(0.999711 -7.77978e-05 0)
(0.999663 7.56797e-05 0)
(0.99966 4.08604e-05 0)
(0.999595 3.38515e-05 0)
(0.999552 0.000103856 0)
(0.999465 0.000107164 0)
(0.999404 0.000151311 0)
(0.999304 0.0001441 0)
(0.999218 0.000184453 0)
(0.999098 0.000205176 0)
(0.999014 0.000265782 0)
(0.998901 0.000303068 0)
(0.998814 0.000359195 0)
(0.998694 0.000396055 0)
(0.998593 0.000455952 0)
(0.99847 0.00050182 0)
(0.998355 0.000573622 0)
(0.99823 0.000637194 0)
(0.998108 0.000728156 0)
(0.997987 0.000830282 0)
(0.997872 0.000955818 0)
(0.997764 0.00108634 0)
(0.997655 0.00122566 0)
(0.997547 0.0013605 0)
(0.997439 0.0015009 0)
(0.997336 0.00163073 0)
(0.997238 0.00175766 0)
(0.997143 0.00186908 0)
(0.997044 0.00197775 0)
(0.996944 0.00207515 0)
(0.996847 0.00217727 0)
(0.996763 0.0022787 0)
(0.996687 0.0023901 0)
(0.996614 0.00249669 0)
(0.996524 0.00260016 0)
(0.996391 0.00268601 0)
(0.996163 0.00275877 0)
(0.995746 0.00281178 0)
(1.00003 -0.000328228 0)
(0.999687 0.000133888 0)
(0.999717 -1.40138e-05 0)
(0.999682 4.17002e-05 0)
(0.999671 6.28488e-05 0)
(0.999609 5.19469e-05 0)
(0.999569 0.000101497 0)
(0.99948 0.000117201 0)
(0.999417 0.000163709 0)
(0.999321 0.00017189 0)
(0.999239 0.000205401 0)
(0.99912 0.000236335 0)
(0.999038 0.000290385 0)
(0.998927 0.000337192 0)
(0.998842 0.000391121 0)
(0.998726 0.000438168 0)
(0.998628 0.00049898 0)
(0.99851 0.000556772 0)
(0.9984 0.000634279 0)
(0.998284 0.000713454 0)
(0.998176 0.000813816 0)
(0.998072 0.000927163 0)
(0.997971 0.00105298 0)
(0.997871 0.00117812 0)
(0.997772 0.00130222 0)
(0.997672 0.00142118 0)
(0.99757 0.00154274 0)
(0.997462 0.00166014 0)
(0.997353 0.00178041 0)
(0.997251 0.00189404 0)
(0.997157 0.00200901 0)
(0.997076 0.00211634 0)
(0.997002 0.0022251 0)
(0.996935 0.00232659 0)
(0.996869 0.00242775 0)
(0.996795 0.00251891 0)
(0.996697 0.00260547 0)
(0.996552 0.00267985 0)
(0.996313 0.00274875 0)
(0.995894 0.0028086 0)
(1.00003 -0.000281078 0)
(0.999721 8.99373e-05 0)
(0.999726 2.15921e-05 0)
(0.999697 3.68453e-05 0)
(0.999686 6.57354e-05 0)
(0.999623 7.55908e-05 0)
(0.999587 0.000111271 0)
(0.999499 0.000132667 0)
(0.999436 0.000172966 0)
(0.999341 0.000194762 0)
(0.999262 0.000227933 0)
(0.999146 0.000268693 0)
(0.999067 0.000318015 0)
(0.998958 0.000372996 0)
(0.998875 0.000425658 0)
(0.998762 0.000482892 0)
(0.998669 0.000544887 0)
(0.998558 0.000615814 0)
(0.998458 0.000700955 0)
(0.998353 0.000800812 0)
(0.998256 0.000910984 0)
(0.998159 0.00102728 0)
(0.998064 0.00114109 0)
(0.997966 0.00125642 0)
(0.997869 0.00137008 0)
(0.997772 0.00148379 0)
(0.99768 0.00159621 0)
(0.997594 0.0017062 0)
(0.997513 0.00181699 0)
(0.997433 0.00192587 0)
(0.997348 0.00203578 0)
(0.997261 0.00214152 0)
(0.997178 0.0022457 0)
(0.997106 0.00234359 0)
(0.997037 0.00243812 0)
(0.996964 0.00252512 0)
(0.996867 0.0026077 0)
(0.996723 0.00268312 0)
(0.996487 0.00275456 0)
(0.996072 0.00282014 0)
(1.00003 -0.000231891 0)
(0.999755 4.84782e-05 0)
(0.99974 4.03435e-05 0)
(0.999714 5.03569e-05 0)
(0.999704 7.76075e-05 0)
(0.99964 9.40102e-05 0)
(0.999604 0.00012634 0)
(0.999517 0.000149882 0)
(0.999455 0.000185653 0)
(0.999363 0.000214335 0)
(0.999287 0.000252694 0)
(0.999176 0.000299043 0)
(0.9991 0.000349476 0)
(0.998993 0.000408359 0)
(0.998913 0.000464987 0)
(0.998804 0.000528975 0)
(0.998717 0.000598247 0)
(0.998614 0.000680368 0)
(0.998526 0.000776654 0)
(0.998432 0.000883193 0)
(0.998344 0.000994454 0)
(0.998252 0.00110858 0)
(0.998164 0.00122327 0)
(0.998075 0.00134152 0)
(0.997992 0.00146044 0)
(0.997905 0.00157609 0)
(0.997816 0.00168496 0)
(0.997722 0.00178369 0)
(0.997631 0.00187543 0)
(0.997546 0.00195971 0)
(0.997471 0.0020451 0)
(0.997405 0.0021326 0)
(0.997345 0.0022266 0)
(0.997288 0.00232015 0)
(0.997228 0.0024133 0)
(0.997158 0.00250002 0)
(0.997062 0.00258243 0)
(0.996918 0.00265729 0)
(0.996682 0.00272783 0)
(0.996267 0.0027919 0)
(1.00002 -0.000186487 0)
(0.99979 1.24371e-05 0)
(0.999759 5.44444e-05 0)
(0.99973 6.62873e-05 0)
(0.999722 8.59961e-05 0)
(0.999657 0.000102754 0)
(0.999624 0.000136019 0)
(0.999538 0.000165731 0)
(0.999477 0.000205609 0)
(0.999388 0.000239889 0)
(0.999316 0.000281788 0)
(0.999208 0.000332008 0)
(0.999136 0.000384438 0)
(0.999033 0.00044694 0)
(0.998956 0.00050859 0)
(0.998853 0.000581149 0)
(0.998774 0.000661356 0)
(0.998682 0.000756351 0)
(0.998604 0.000857706 0)
(0.998516 0.000961339 0)
(0.998436 0.00106238 0)
(0.998353 0.00116564 0)
(0.998276 0.00126741 0)
(0.998194 0.00137138 0)
(0.998112 0.00147462 0)
(0.99802 0.00157871 0)
(0.997928 0.00168483 0)
(0.997839 0.00179334 0)
(0.99776 0.00190428 0)
(0.997689 0.00201024 0)
(0.997628 0.00211188 0)
(0.997574 0.0022058 0)
(0.997525 0.00229687 0)
(0.997476 0.00238237 0)
(0.997421 0.0024658 0)
(0.997353 0.00254338 0)
(0.997258 0.00261785 0)
(0.997113 0.00268597 0)
(0.996877 0.00275061 0)
(0.996462 0.00280933 0)
(1.00002 -0.000146434 0)
(0.999823 -1.29781e-05 0)
(0.999784 6.10207e-05 0)
(0.999747 8.08676e-05 0)
(0.999741 0.000100348 0)
(0.999676 0.000117961 0)
(0.999645 0.000153035 0)
(0.999561 0.000184921 0)
(0.999502 0.000226954 0)
(0.999415 0.000263762 0)
(0.999347 0.000309276 0)
(0.999244 0.000364447 0)
(0.999175 0.000421141 0)
(0.999077 0.000489359 0)
(0.999006 0.000558045 0)
(0.998911 0.000641037 0)
(0.998842 0.000730533 0)
(0.998758 0.000828065 0)
(0.998685 0.000925709 0)
(0.998599 0.0010284 0)
(0.998523 0.00113232 0)
(0.99844 0.00124154 0)
(0.998367 0.00134701 0)
(0.998292 0.00144906 0)
(0.998225 0.00154523 0)
(0.998158 0.00164114 0)
(0.998095 0.00173931 0)
(0.998026 0.00183872 0)
(0.997954 0.00193896 0)
(0.997877 0.00203552 0)
(0.997807 0.00212958 0)
(0.997747 0.00221769 0)
(0.997696 0.0023028 0)
(0.99765 0.00238211 0)
(0.9976 0.00245879 0)
(0.997537 0.00252996 0)
(0.997446 0.00259838 0)
(0.997303 0.00266128 0)
(0.997069 0.00272121 0)
(0.996654 0.00277585 0)
(1.00002 -0.00010939 0)
(0.999855 -3.45142e-05 0)
(0.999812 6.4932e-05 0)
(0.999766 9.71512e-05 0)
(0.999761 0.000115961 0)
(0.999695 0.000133281 0)
(0.999667 0.000167967 0)
(0.999585 0.00020215 0)
(0.999528 0.000247796 0)
(0.999444 0.000288715 0)
(0.999381 0.000338758 0)
(0.999283 0.000396379 0)
(0.999219 0.000458438 0)
(0.999127 0.000535867 0)
(0.999063 0.000616498 0)
(0.998976 0.000707311 0)
(0.998913 0.00079663 0)
(0.998834 0.000888664 0)
(0.99877 0.000980269 0)
(0.998697 0.00107735 0)
(0.998636 0.00117587 0)
(0.998565 0.00127977 0)
(0.998497 0.00138441 0)
(0.998419 0.00149086 0)
(0.998346 0.00159612 0)
(0.998271 0.00169858 0)
(0.998202 0.00179696 0)
(0.998133 0.00188793 0)
(0.998072 0.00197419 0)
(0.998015 0.00205624 0)
(0.997965 0.00213906 0)
(0.99792 0.00221976 0)
(0.997879 0.00230028 0)
(0.997838 0.00237624 0)
(0.997792 0.0024498 0)
(0.99773 0.00251757 0)
(0.99764 0.0025823 0)
(0.997499 0.00264138 0)
(0.997266 0.00269759 0)
(0.996851 0.00274871 0)
(1.00002 -7.89577e-05 0)
(0.999886 -3.63492e-05 0)
(0.999846 5.73766e-05 0)
(0.999786 0.000105516 0)
(0.99978 0.000131754 0)
(0.999715 0.000151461 0)
(0.99969 0.000186158 0)
(0.999611 0.00022047 0)
(0.999556 0.000267553 0)
(0.999476 0.000314212 0)
(0.999418 0.000371875 0)
(0.999325 0.000440084 0)
(0.99927 0.00051046 0)
(0.999187 0.000593183 0)
(0.999129 0.000676429 0)
(0.999046 0.000765382 0)
(0.998987 0.000850681 0)
(0.998911 0.000941132 0)
(0.998853 0.00103142 0)
(0.998782 0.00112655 0)
(0.998724 0.00122059 0)
(0.998659 0.00131872 0)
(0.998605 0.00141887 0)
(0.998546 0.00152476 0)
(0.998495 0.00163252 0)
(0.998438 0.00173802 0)
(0.998381 0.00183806 0)
(0.998314 0.00193016 0)
(0.998249 0.00201671 0)
(0.998186 0.00209724 0)
(0.998136 0.00217572 0)
(0.998093 0.00225042 0)
(0.998059 0.00232407 0)
(0.998023 0.00239353 0)
(0.997981 0.00246086 0)
(0.997921 0.00252305 0)
(0.997834 0.00258243 0)
(0.997693 0.00263666 0)
(0.997461 0.00268818 0)
(0.997047 0.00273501 0)
(1.00002 -5.63645e-05 0)
(0.99991 -1.91068e-05 0)
(0.999876 4.03631e-05 0)
(0.999808 0.000108131 0)
(0.999799 0.000147114 0)
(0.999733 0.000173146 0)
(0.99971 0.00020816 0)
(0.999635 0.000244942 0)
(0.999584 0.00029476 0)
(0.99951 0.000345748 0)
(0.99946 0.000409696 0)
(0.999374 0.000484819 0)
(0.999323 0.000559811 0)
(0.999243 0.000641109 0)
(0.999191 0.000720915 0)
(0.999112 0.000808052 0)
(0.99906 0.000895126 0)
(0.998993 0.000988574 0)
(0.998944 0.0010829 0)
(0.998884 0.00118201 0)
(0.99884 0.00128032 0)
(0.998788 0.00138098 0)
(0.998746 0.0014804 0)
(0.998692 0.00157907 0)
(0.998638 0.00167502 0)
(0.99857 0.00176699 0)
(0.998504 0.00185525 0)
(0.998435 0.00193844 0)
(0.998379 0.00201888 0)
(0.998329 0.00209511 0)
(0.998293 0.00216984 0)
(0.998261 0.00224075 0)
(0.998234 0.00231005 0)
(0.998203 0.00237491 0)
(0.998165 0.00243741 0)
(0.998107 0.00249498 0)
(0.998022 0.00254986 0)
(0.997882 0.0025999 0)
(0.99765 0.0026474 0)
(0.997236 0.00269051 0)
(1.00002 -3.60338e-05 0)
(0.999926 -6.95e-06 0)
(0.999903 3.54655e-05 0)
(0.999833 0.00010694 0)
(0.999819 0.00016027 0)
(0.999749 0.000195014 0)
(0.99973 0.000234892 0)
(0.999658 0.000276937 0)
(0.999612 0.00033054 0)
(0.999543 0.000383273 0)
(0.999501 0.000445874 0)
(0.99942 0.000520025 0)
(0.999375 0.000594339 0)
(0.999302 0.000678017 0)
(0.999256 0.000761547 0)
(0.999185 0.000853037 0)
(0.999141 0.000943639 0)
(0.99908 0.00103965 0)
(0.999039 0.00113468 0)
(0.998983 0.00123394 0)
(0.998942 0.00133011 0)
(0.998891 0.00142718 0)
(0.998853 0.00152004 0)
(0.998806 0.00161067 0)
(0.998768 0.00169597 0)
(0.998719 0.00177764 0)
(0.998671 0.0018569 0)
(0.998611 0.00193466 0)
(0.998556 0.00201188 0)
(0.998503 0.00208708 0)
(0.998466 0.0021608 0)
(0.998435 0.00223075 0)
(0.998412 0.00229796 0)
(0.998383 0.00236036 0)
(0.998348 0.00241955 0)
(0.998292 0.0024738 0)
(0.998208 0.00252506 0)
(0.998068 0.0025718 0)
(0.997838 0.002616 0)
(0.997424 0.00265616 0)
(1.00002 -2.11838e-05 0)
(0.99994 7.29024e-06 0)
(0.999926 4.40913e-05 0)
(0.999857 0.000102747 0)
(0.99984 0.000165415 0)
(0.999767 0.000213509 0)
(0.99975 0.00026091 0)
(0.999682 0.000307253 0)
(0.99964 0.000364821 0)
(0.999575 0.000418852 0)
(0.999541 0.00048159 0)
(0.999468 0.000556146 0)
(0.99943 0.000633833 0)
(0.999364 0.000719407 0)
(0.999325 0.000806541 0)
(0.999261 0.00089904 0)
(0.999223 0.000990964 0)
(0.99917 0.00108623 0)
(0.999138 0.00118035 0)
(0.999092 0.00127791 0)
(0.999063 0.00137331 0)
(0.999021 0.00146911 0)
(0.99899 0.0015611 0)
(0.998941 0.00164987 0)
(0.998895 0.00173197 0)
(0.998834 0.00180667 0)
(0.998782 0.00187426 0)
(0.998729 0.00193849 0)
(0.998692 0.00200403 0)
(0.998658 0.00207112 0)
(0.998637 0.00213967 0)
(0.998615 0.00220612 0)
(0.998596 0.00227019 0)
(0.998568 0.00232933 0)
(0.998533 0.00238497 0)
(0.998477 0.00243557 0)
(0.998393 0.0024832 0)
(0.998253 0.00252648 0)
(0.998023 0.00256741 0)
(0.997609 0.00260453 0)
(1.00002 -8.37474e-06 0)
(0.99995 2.00721e-05 0)
(0.999944 5.42429e-05 0)
(0.999878 0.000103525 0)
(0.999863 0.000169184 0)
(0.999786 0.000228546 0)
(0.999771 0.000285635 0)
(0.999706 0.000337411 0)
(0.999668 0.000398796 0)
(0.999607 0.000456882 0)
(0.999582 0.00051949 0)
(0.999517 0.000593791 0)
(0.999486 0.000672253 0)
(0.999428 0.000757983 0)
(0.999397 0.000846375 0)
(0.99934 0.00093945 0)
(0.999309 0.00103177 0)
(0.999263 0.00112695 0)
(0.999238 0.00121962 0)
(0.999196 0.00131441 0)
(0.999171 0.0014045 0)
(0.999131 0.00149253 0)
(0.999103 0.00157386 0)
(0.99906 0.00165127 0)
(0.999021 0.00172342 0)
(0.998966 0.00179381 0)
(0.998921 0.00186287 0)
(0.998875 0.00193191 0)
(0.998847 0.00200065 0)
(0.998823 0.00206799 0)
(0.99881 0.00213354 0)
(0.998792 0.00219553 0)
(0.998776 0.0022544 0)
(0.998749 0.0023086 0)
(0.998715 0.00235948 0)
(0.998657 0.00240579 0)
(0.998573 0.00244935 0)
(0.998434 0.00248892 0)
(0.998204 0.00252635 0)
(0.99779 0.00256027 0)
(1.00002 -4.74606e-08 0)
(0.999958 3.55476e-05 0)
(0.999958 6.40851e-05 0)
(0.999896 0.000111793 0)
(0.999884 0.000172228 0)
(0.999809 0.00023825 0)
(0.999793 0.000304265 0)
(0.999731 0.000366587 0)
(0.999698 0.000433026 0)
(0.99964 0.00049667 0)
(0.999622 0.000561222 0)
(0.999566 0.000634755 0)
(0.999543 0.000712971 0)
(0.999494 0.000796155 0)
(0.99947 0.000883355 0)
(0.999421 0.00097527 0)
(0.999398 0.00106707 0)
(0.999358 0.00116105 0)
(0.999341 0.00125206 0)
(0.999306 0.00134394 0)
(0.999286 0.00143112 0)
(0.999249 0.00151504 0)
(0.999222 0.00159117 0)
(0.999175 0.00166151 0)
(0.999136 0.00172652 0)
(0.999088 0.00179044 0)
(0.999055 0.00185539 0)
(0.999022 0.00192139 0)
(0.999006 0.00198753 0)
(0.998989 0.00205141 0)
(0.998981 0.00211278 0)
(0.998965 0.00216982 0)
(0.998951 0.00222363 0)
(0.998923 0.00227283 0)
(0.998889 0.00231914 0)
(0.998831 0.00236124 0)
(0.998747 0.002401 0)
(0.998607 0.00243707 0)
(0.998378 0.00247127 0)
(0.997964 0.00250219 0)
(1.00002 7.80309e-06 0)
(0.999964 4.73679e-05 0)
(0.999969 7.84876e-05 0)
(0.99991 0.000122445 0)
(0.999904 0.000182468 0)
(0.99983 0.000247442 0)
(0.999819 0.000315897 0)
(0.99976 0.000383038 0)
(0.999731 0.000455942 0)
(0.999674 0.000528937 0)
(0.999663 0.000600134 0)
(0.999615 0.000677011 0)
(0.999599 0.000755738 0)
(0.999558 0.000836006 0)
(0.999544 0.000919171 0)
(0.999503 0.00100786 0)
(0.999488 0.00109751 0)
(0.999455 0.00118956 0)
(0.999444 0.00127852 0)
(0.999413 0.00136655 0)
(0.999395 0.0014482 0)
(0.999356 0.0015244 0)
(0.999326 0.00159261 0)
(0.999281 0.00165724 0)
(0.99925 0.00171992 0)
(0.999214 0.00178353 0)
(0.999194 0.00184748 0)
(0.999173 0.00191113 0)
(0.999165 0.00197317 0)
(0.999152 0.00203233 0)
(0.999147 0.00208839 0)
(0.999132 0.00214045 0)
(0.999118 0.00218928 0)
(0.999091 0.00223414 0)
(0.999057 0.00227624 0)
(0.998999 0.00231476 0)
(0.998916 0.00235104 0)
(0.998776 0.00238412 0)
(0.998547 0.00241539 0)
(0.998132 0.00244378 0)
(1.00002 1.29777e-05 0)
(0.999969 5.87346e-05 0)
(0.999977 9.24146e-05 0)
(0.999923 0.000137359 0)
(0.99992 0.000197399 0)
(0.999851 0.000264973 0)
(0.999843 0.000332548 0)
(0.99979 0.000401876 0)
(0.999769 0.000476742 0)
(0.999717 0.000555171 0)
(0.99971 0.000630278 0)
(0.999668 0.000707924 0)
(0.999656 0.00078789 0)
(0.999621 0.000866417 0)
(0.999615 0.000946643 0)
(0.999585 0.00102927 0)
(0.999579 0.00111329 0)
(0.999554 0.00119683 0)
(0.999548 0.00127828 0)
(0.999521 0.00135765 0)
(0.999502 0.00143416 0)
(0.999461 0.00150768 0)
(0.999433 0.00157759 0)
(0.999394 0.00164446 0)
(0.999373 0.00170881 0)
(0.999346 0.00177125 0)
(0.999336 0.00183195 0)
(0.999321 0.00189044 0)
(0.999319 0.00194655 0)
(0.999309 0.0019995 0)
(0.999306 0.00204962 0)
(0.999292 0.00209623 0)
(0.99928 0.00214012 0)
(0.999252 0.00218059 0)
(0.999219 0.00221866 0)
(0.999161 0.00225356 0)
(0.999078 0.0022864 0)
(0.998939 0.00231637 0)
(0.99871 0.00234463 0)
(0.998296 0.00237031 0)
(1.00002 1.83171e-05 0)
(0.999972 6.77405e-05 0)
(0.999984 0.000107957 0)
(0.999934 0.00015231 0)
(0.999938 0.000215385 0)
(0.999872 0.00028479 0)
(0.999869 0.00035533 0)
(0.99982 0.000427385 0)
(0.999807 0.000499748 0)
(0.999758 0.000577401 0)
(0.999757 0.000650586 0)
(0.99972 0.000726842 0)
(0.999715 0.000807075 0)
(0.999684 0.000887428 0)
(0.999685 0.000968782 0)
(0.999661 0.00105047 0)
(0.99966 0.00113329 0)
(0.99964 0.00121426 0)
(0.999639 0.00129294 0)
(0.999619 0.00136874 0)
(0.999609 0.00144195 0)
(0.999579 0.00151283 0)
(0.999556 0.00158042 0)
(0.999521 0.00164508 0)
(0.999501 0.00170643 0)
(0.999477 0.00176551 0)
(0.99947 0.00182192 0)
(0.99946 0.00187603 0)
(0.999461 0.00192727 0)
(0.999454 0.00197572 0)
(0.999454 0.00202121 0)
(0.999442 0.00206376 0)
(0.999431 0.00210362 0)
(0.999405 0.00214065 0)
(0.999372 0.00217535 0)
(0.999315 0.00220738 0)
(0.999233 0.00223739 0)
(0.999093 0.00226491 0)
(0.998864 0.00229069 0)
(0.998449 0.0023142 0)
(1.00002 2.1419e-05 0)
(0.999976 7.59231e-05 0)
(0.99999 0.000120868 0)
(0.999945 0.000167931 0)
(0.999953 0.000232156 0)
(0.999893 0.000303568 0)
(0.999893 0.000373834 0)
(0.99985 0.000447335 0)
(0.999844 0.000517617 0)
(0.9998 0.000594872 0)
(0.999803 0.000668067 0)
(0.999775 0.000741876 0)
(0.999777 0.000819774 0)
(0.999754 0.000895592 0)
(0.999762 0.000973299 0)
(0.999748 0.00104732 0)
(0.999755 0.00112429 0)
(0.999741 0.00119763 0)
(0.999745 0.00127098 0)
(0.999727 0.00133977 0)
(0.999718 0.00140663 0)
(0.999686 0.0014692 0)
(0.999666 0.00152918 0)
(0.999635 0.00158698 0)
(0.999622 0.00164364 0)
(0.999606 0.00169906 0)
(0.999606 0.00175266 0)
(0.999599 0.00180394 0)
(0.999604 0.00185228 0)
(0.999599 0.00189754 0)
(0.9996 0.00193969 0)
(0.99959 0.00197885 0)
(0.99958 0.00201537 0)
(0.999555 0.00204925 0)
(0.999523 0.00208098 0)
(0.999467 0.00211035 0)
(0.999385 0.00213792 0)
(0.999245 0.00216332 0)
(0.999016 0.00218719 0)
(0.998601 0.00220907 0)
(1.00002 2.58238e-05 0)
(0.999979 8.32889e-05 0)
(0.999996 0.000134567 0)
(0.999956 0.000181368 0)
(0.999969 0.000248112 0)
(0.999914 0.000319767 0)
(0.999919 0.000389661 0)
(0.99988 0.000465395 0)
(0.999882 0.000534672 0)
(0.999842 0.000613193 0)
(0.99985 0.000687382 0)
(0.999826 0.000762532 0)
(0.999833 0.000841561 0)
(0.999814 0.000919017 0)
(0.999824 0.000999376 0)
(0.999814 0.00107494 0)
(0.999825 0.00115252 0)
(0.999817 0.0012247 0)
(0.999825 0.0012947 0)
(0.999813 0.00135767 0)
(0.99981 0.00141699 0)
(0.999786 0.00147302 0)
(0.999773 0.0015285 0)
(0.99975 0.00158368 0)
(0.999745 0.00163801 0)
(0.999736 0.00169095 0)
(0.999741 0.00174125 0)
(0.999737 0.00178894 0)
(0.999743 0.00183328 0)
(0.999739 0.00187474 0)
(0.99974 0.00191302 0)
(0.99973 0.00194855 0)
(0.999721 0.00198135 0)
(0.999696 0.00201164 0)
(0.999666 0.00203966 0)
(0.99961 0.00206542 0)
(0.999529 0.0020893 0)
(0.999391 0.00211115 0)
(0.999164 0.00213146 0)
(0.998749 0.00214995 0)
(1.00002 2.52675e-05 0)
(0.999981 9.10432e-05 0)
(1 0.000145913 0)
(0.999964 0.000198647 0)
(0.999981 0.000263644 0)
(0.999934 0.000337436 0)
(0.999944 0.000402765 0)
(0.99991 0.00047892 0)
(0.99992 0.000543362 0)
(0.999887 0.00061861 0)
(0.9999 0.000687375 0)
(0.999886 0.000755506 0)
(0.999903 0.000825356 0)
(0.999894 0.0008909 0)
(0.999913 0.000958871 0)
(0.999911 0.00101954 0)
(0.999929 0.00108232 0)
(0.999922 0.00113984 0)
(0.999926 0.00119878 0)
(0.999907 0.00125475 0)
(0.999902 0.0013125 0)
(0.999881 0.00137077 0)
(0.999878 0.00143113 0)
(0.999865 0.00149095 0)
(0.999868 0.00154774 0)
(0.999863 0.00159959 0)
(0.99987 0.00164597 0)
(0.999868 0.00168817 0)
(0.999875 0.00172701 0)
(0.999871 0.00176395 0)
(0.999872 0.00179926 0)
(0.999861 0.00183351 0)
(0.999851 0.0018665 0)
(0.999824 0.00189828 0)
(0.999792 0.00192867 0)
(0.999733 0.00195752 0)