/*--------------------------------*- C++ -*----------------------------------*\
| =========                 |                                                 |
| \\      /  F ield         | OpenFOAM: The Open Source CFD Toolbox           |
|  \\    /   O peration     | Version:  2312                                  |
|   \\  /    A nd           | Website:  www.openfoam.com                      |
|    \\/     M anipulation  |                                                 |
\*---------------------------------------------------------------------------*/
FoamFile
{
    version     2.0;
    format      ascii;
    arch        "LSB;label=32;scalar=64";
    class       volScalarField;
    location    "0.9";
    object      p;
}
// * * * * * * * * * * * * * * * * * * * * * * * * * * * * * * * * * * * * * //

dimensions      [0 2 -2 0 0 0 0];

internalField   nonuniform List<scalar> 
5600
(
6.80558e-09
0.000471646
0.000302738
0.000442927
0.000368626
0.000527496
0.000508412
0.000651853
0.000671414
0.000807125
0.00086654
0.000995309
0.0010804
0.00121013
0.00131877
0.00145222
0.00157996
0.00171933
0.00186087
0.00201316
0.00217257
0.00234389
0.00252246
0.00271318
0.00290925
0.00311726
0.00333032
0.00355537
0.00378718
0.00403388
0.00429216
0.00456922
0.00485975
0.00516103
0.00546105
0.00575053
0.00603665
0.00631741
0.00652959
0.00649849
2.61708e-06
0.000468686
0.000304674
0.000440081
0.00037112
0.000523895
0.000511019
0.000647659
0.000674029
0.00080241
0.000868764
0.000990388
0.00108119
0.00120518
0.00131792
0.00144687
0.00157606
0.00171357
0.00185599
0.00200873
0.00216725
0.00233745
0.00251389
0.00270117
0.0028956
0.00310048
0.0033129
0.00353536
0.00376617
0.00400648
0.00425262
0.0044993
0.00473967
0.00497458
0.00520645
0.00542582
0.00560603
0.00570377
0.00564765
0.00531384
4.97228e-06
0.000467005
0.000305709
0.000438884
0.000372104
0.000522223
0.00051182
0.000645821
0.000674556
0.000800448
0.000868946
0.000988523
0.00108073
0.00120351
0.00131645
0.00144486
0.00157376
0.00171104
0.00185288
0.00200453
0.0021625
0.00233204
0.0025069
0.00269297
0.00288553
0.00308871
0.00329813
0.00351613
0.00373912
0.00396841
0.00419979
0.00442778
0.00464732
0.00486194
0.00507185
0.00526545
0.00541523
0.00548426
0.00541099
0.00508829
8.93622e-06
0.000462814
0.00030817
0.000435077
0.000375101
0.000517362
0.000515035
0.000640418
0.000677738
0.000794546
0.000871467
0.000982293
0.00108133
0.00119721
0.00131505
0.00143949
0.00156912
0.00170568
0.00184672
0.00199714
0.00215451
0.00232132
0.00249487
0.0026772
0.00286724
0.00306631
0.00327289
0.00348561
0.0036996
0.00390855
0.00411045
0.00430891
0.00450596
0.00469762
0.00487257
0.00501332
0.00509509
0.00508401
0.00492762
0.00453247
1.25221e-05
0.000458997
0.000310196
0.000432463
0.000377147
0.000513792
0.00051661
0.000636643
0.000678615
0.000790909
0.00087164
0.000979145
0.00108026
0.00119383
0.0013117
0.00143576
0.00156407
0.00169957
0.00183987
0.00198892
0.00214467
0.00230931
0.00248042
0.00265961
0.0028457
0.00303879
0.00323661
0.00343737
0.00363804
0.00383451
0.00402093
0.004198
0.00437083
0.00453683
0.00468354
0.00479317
0.00484384
0.00480727
0.00463753
0.00424731
1.74652e-05
0.000452893
0.000313759
0.000427396
0.000381152
0.000507278
0.000520735
0.000629858
0.000682022
0.000783841
0.000873025
0.000973001
0.00107786
0.00119062
0.00130699
0.00142943
0.00155695
0.00169119
0.00183074
0.00197768
0.00213153
0.00229312
0.00246083
0.0026354
0.0028165
0.00300402
0.00319407
0.00338026
0.00355759
0.00372846
0.00389623
0.00406166
0.00422168
0.00436954
0.00449389
0.00457942
0.004606
0.00454543
0.00435213
0.00393958
2.23556e-05
0.000446507
0.000317028
0.000423203
0.000384312
0.000501546
0.000522774
0.000624353
0.000682588
0.000779535
0.000872175
0.000969869
0.00107415
0.00118593
0.00130105
0.00142236
0.0015487
0.00168159
0.00181949
0.00196421
0.00211522
0.00227337
0.00243656
0.00260507
0.00277751
0.00295276
0.00312835
0.00330181
0.00346908
0.00362563
0.00377472
0.0039221
0.00406567
0.0041968
0.00430413
0.00437422
0.00438904
0.00432187
0.00412672
0.00371334
2.86318e-05
0.000437665
0.00032194
0.000416617
0.000389536
0.000493266
0.000527452
0.00061639
0.000684058
0.000773434
0.000869329
0.00096723
0.00106896
0.00117949
0.00129365
0.00141392
0.00153851
0.0016697
0.00180527
0.0019475
0.00209485
0.00224891
0.00240624
0.00256724
0.00272982
0.00289347
0.00305397
0.00320614
0.00335107
0.00349349
0.00363483
0.00377346
0.0039046
0.00402185
0.00411605
0.00417643
0.0041871
0.00412372
0.00394206
0.00355409
3.51691e-05
0.00042789
0.000326691
0.000410709
0.000393482
0.000485339
0.000529074
0.000610402
0.000683598
0.000770503
0.000865688
0.000962267
0.00106296
0.00117202
0.00128512
0.00140362
0.00152646
0.00165514
0.00178822
0.00192697
0.0020701
0.0022189
0.00237015
0.00252248
0.00267181
0.00281449
0.00295128
0.0030861
0.00322051
0.00335418
0.00348595
0.0036149
0.00373906
0.00385558
0.00395847
0.00403775
0.00407555
0.0040403
0.00387043
0.00344219
4.31483e-05
0.000415481
0.000332821
0.000402828
0.000399681
0.000475779
0.00053265
0.000602524
0.000679458
0.000767304
0.000861663
0.00095571
0.00105615
0.00116282
0.00127514
0.00139082
0.00151215
0.00163738
0.0017678
0.00190198
0.00204014
0.00218131
0.00232309
0.00246202
0.00259473
0.00272085
0.00284497
0.00296934
0.00309172
0.00320703
0.00331159
0.00340441
0.00348936
0.00357382
0.00366118
0.00374226
0.0038155
0.0039074
0.00408936
0.00450088
5.16851e-05
0.000401464
0.000339061
0.000395377
0.000403276
0.000466738
0.000531942
0.000600346
0.000675423
0.000762213
0.000855882
0.000948285
0.00104756
0.00115229
0.00126292
0.00137604
0.00149481
0.00161647
0.00174283
0.00187203
0.00200387
0.00213601
0.00226414
0.00238514
0.00250162
0.00261782
0.00273435
0.00284776
0.00295542
0.00305573
0.00315053
0.00324449
0.00334351
0.00344672
0.00354456
0.00363224
0.00371884
0.00383155
0.00402358
0.00439568
6.17207e-05
0.000384674
0.000345517
0.000387732
0.000408717
0.000459417
0.000525867
0.000596433
0.00067156
0.000756415
0.000848495
0.000939594
0.00103686
0.00113998
0.00124813
0.00135881
0.001474
0.00159187
0.00171245
0.00183461
0.00195664
0.00207659
0.00219036
0.00229867
0.00240626
0.00251529
0.00262351
0.00272696
0.00282404
0.002918
0.00301475
0.00311488
0.00321091
0.00329657
0.00337206
0.00344554
0.00353384
0.00366578
0.00389132
0.00430618
7.24216e-05
0.0003663
0.000351978
0.000379833
0.000408721
0.000455947
0.000520064
0.000590998
0.00066609
0.000750023
0.000840453
0.000929402
0.00102428
0.00112531
0.00123075
0.00133832
0.00144938
0.00156273
0.00167704
0.00179008
0.00189794
0.00200166
0.00210332
0.00220351
0.00230186
0.00239971
0.00250048
0.00260698
0.0027154
0.00281873
0.00291255
0.00299571
0.00306952
0.00313686
0.00320253
0.00327585
0.00337239
0.00351694
0.00375351
0.00417013
8.46336e-05
0.000344487
0.000356971
0.000376824
0.000406352
0.000452197
0.000514389
0.000583375
0.000657628
0.000741877
0.000830848
0.000917413
0.00100951
0.001108
0.00121032
0.00131406
0.0014198
0.00152613
0.00163062
0.00173191
0.00182879
0.00192496
0.00202185
0.00211919
0.00221586
0.00231072
0.00240219
0.00248854
0.00256973
0.00264939
0.00273332
0.00282077
0.0029037
0.00297731
0.00304542
0.00311872
0.00321404
0.00335697
0.00359136
0.00400408
9.73436e-05
0.000323833
0.000358398
0.000372936
0.000401076
0.000447101
0.000509234
0.000577283
0.000649579
0.000731619
0.000818724
0.000903011
0.000992122
0.00108759
0.00118624
0.00128529
0.00138424
0.00148126
0.00157348
0.00166391
0.00175426
0.00184497
0.00193423
0.0020208
0.00210481
0.00218902
0.0022775
0.00237119
0.0024641
0.00254986
0.00262576
0.00269241
0.00275218
0.00280871
0.0028674
0.00293698
0.00303153
0.00317455
0.00340892
0.00382207
0.000111031
0.000302606
0.000354503
0.000370519
0.000397397
0.000442167
0.000502855
0.000569165
0.000639105
0.000719057
0.000804348
0.000885978
0.0009717
0.00106351
0.00115753
0.00125023
0.00133992
0.001426
0.00150972
0.00159395
0.00167726
0.00175844
0.00183695
0.00191497
0.00199628
0.00208387
0.00217565
0.00226588
0.00234888
0.00242145
0.00248354
0.00253709
0.0025856
0.00263349
0.00268677
0.00275391
0.00284806
0.00299165
0.00322673
0.00364021
0.000124942
0.000283188
0.000346085
0.000367097
0.000392905
0.00043591
0.000494977
0.000559639
0.00062726
0.000704671
0.000787607
0.000866031
0.000947725
0.00103493
0.00112272
0.00120677
0.00128587
0.00136428
0.00144296
0.00152283
0.00160227
0.00168032
0.0017557
0.00182782
0.00189669
0.00196309
0.00202974
0.00210031
0.00217631
0.00225236
0.00232083
0.00237791
0.00242558
0.00246982
0.00251848
0.0025814
0.00267236
0.00281387
0.00304774
0.00346073
0.000138833
0.000264268
0.000333121
0.000362565
0.000388573
0.000429543
0.000486463
0.000548889
0.000613741
0.00068797
0.000767839
0.000841904
0.000918338
0.00100004
0.00108006
0.00115547
0.00122846
0.0013017
0.00137316
0.00144162
0.00150655
0.00157051
0.00163735
0.0017099
0.00178619
0.00186269
0.00193671
0.00200611
0.00206929
0.00212528
0.00217412
0.00221693
0.00225602
0.0022954
0.00234118
0.00240215
0.00249164
0.00263199
0.002865
0.00327742
0.000152634
0.000247902
0.000314564
0.000355647
0.000383713
0.000422478
0.000476723
0.000536181
0.000597621
0.00066836
0.000745304
0.000814353
0.000882039
0.000955094
0.00102875
0.00110034
0.00116914
0.00123664
0.00130206
0.00136589
0.00142775
0.00148763
0.00154524
0.0016008
0.00165574
0.00171265
0.00177498
0.0018431
0.00191062
0.00196996
0.00201778
0.00205568
0.00208855
0.00212252
0.00216451
0.00222313
0.0023112
0.00245061
0.00268289
0.00309482
0.000163172
0.000234163
0.000296668
0.00034412
0.000376185
0.000414348
0.000466455
0.000523069
0.00057972
0.000643772
0.000714268
0.000777443
0.000840095
0.000909118
0.00097835
0.00104391
0.0011055
0.0011652
0.00122214
0.00127592
0.00132592
0.00137326
0.00142011
0.00146954
0.00152507
0.00158844
0.00165673
0.00172355
0.00178255
0.00183016
0.00186674
0.00189569
0.00192201
0.00195135
0.00199018
0.00204674
0.00213351
0.00227205
0.00250385
0.00291567
0.000170537
0.000224837
0.000278116
0.000326717
0.000365026
0.000404301
0.000453753
0.000506493
0.000558361
0.00061624
0.000681432
0.000739675
0.000795764
0.000858432
0.00092149
0.000979739
0.00103313
0.00108476
0.00113449
0.00118233
0.00122812
0.00127214
0.00131516
0.00135821
0.00140327
0.00145286
0.00150908
0.00156927
0.00162517
0.00167006
0.00170284
0.0017273
0.00174947
0.00177575
0.00181261
0.00186796
0.00195391
0.00209186
0.00232309
0.00273451
0.000174969
0.000215636
0.000260723
0.000307379
0.000349234
0.000390371
0.000437984
0.000487266
0.000534881
0.000586705
0.000645562
0.000697552
0.000745744
0.000800834
0.000857505
0.000909067
0.000954825
0.000998551
0.00104049
0.00107993
0.00111658
0.00115198
0.00118932
0.00123196
0.00128216
0.00133768
0.00139292
0.00144205
0.0014816
0.00151122
0.00153332
0.0015518
0.00157128
0.00159659
0.00163317
0.00168837
0.00177414
0.00191183
0.00214288
0.00255436
0.000176061
0.000206651
0.000244463
0.000287585
0.000328611
0.000371121
0.000418082
0.000464258
0.000507843
0.00055408
0.000606009
0.000651185
0.000690964
0.000737631
0.000787501
0.000832504
0.00087067
0.000906208
0.000940728
0.000974027
0.0010063
0.00103882
0.00107421
0.00111492
0.0011622
0.00121265
0.00125971
0.00129804
0.00132615
0.00134582
0.00136077
0.00137509
0.00139271
0.00141752
0.0014542
0.00150966
0.00159556
0.00173323
0.00196418
0.00237569
0.000173857
0.000196882
0.000228277
0.000267046
0.000305086
0.00034646
0.00039279
0.000436806
0.000476858
0.000517699
0.000562975
0.000601273
0.000632362
0.000669345
0.000711248
0.000749546
0.000780495
0.000808242
0.000835848
0.000863615
0.00089176
0.000921865
0.000956785
0.000997841
0.00104216
0.00108424
0.00111945
0.0011458
0.00116411
0.001177
0.00118784
0.00120001
0.00121678
0.00124144
0.00127823
0.00133377
0.00141961
0.00155709
0.00178785
0.00219935
0.000167801
0.000185944
0.000211817
0.000246252
0.000280557
0.000317507
0.000360242
0.000401829
0.000439445
0.000475885
0.000514987
0.000547581
0.000571459
0.000598683
0.000631112
0.000661588
0.000685233
0.000705331
0.000726338
0.000749957
0.000776858
0.000807964
0.000844004
0.000882398
0.000918862
0.000949661
0.000973046
0.000989298
0.00100027
0.00100858
0.001017
0.00102813
0.00104449
0.00106892
0.00110547
0.00116067
0.00124613
0.00138332
0.00161395
0.00202556
0.000158397
0.000172541
0.000193688
0.000223733
0.000254472
0.000287897
0.000326397
0.000362181
0.000393829
0.000424121
0.000457242
0.000486319
0.000506592
0.000526196
0.000548831
0.000570445
0.000586195
0.000598455
0.000612843
0.000632973
0.000659877
0.000692204
0.000726383
0.000758535
0.000785899
0.000807
0.000821769
0.000831323
0.000837565
0.000842745
0.000849163
0.00085903
0.000874583
0.000898473
0.000934573
0.000989411
0.00107456
0.0012114
0.00144173
0.00185325
0.000145351
0.000156472
0.000173298
0.000198846
0.000225181
0.000253482
0.000287229
0.000318169
0.000344724
0.000369804
0.00039713
0.000420986
0.000436251
0.00044922
0.000464126
0.000479133
0.000490045
0.000497645
0.000506535
0.000520398
0.000540567
0.000566461
0.000595776
0.000623813
0.000646687
0.000662811
0.000672686
0.000677937
0.000680668
0.0006831
0.000687397
0.000695633
0.00070994
0.000732914
0.000768404
0.000822877
0.000907871
0.00104479
0.00127542
0.00168745
0.000128336
0.000137003
0.000149966
0.000171014
0.000192925
0.000215957
0.000244903
0.00027126
0.000292581
0.000311771
0.000332406
0.000349793
0.000358426
0.000363692
0.000369917
0.000376453
0.000380316
0.000381997
0.00038587
0.000396231
0.00041491
0.000440137
0.000466645
0.000489248
0.000505333
0.000514818
0.000519179
0.000520403
0.000520437
0.000521078
0.000524044
0.000531111
0.000544287
0.000566186
0.000600739
0.000654506
0.000739088
0.000875879
0.00110661
0.00151901
0.000108102
0.000114146
0.000123122
0.000139467
0.000157355
0.000174937
0.000198312
0.000219946
0.000236203
0.000249727
0.000264587
0.000277794
0.000282992
0.000284056
0.000285734
0.000287925
0.000287864
0.000285357
0.000284112
0.00028853
0.000301005
0.000319986
0.000339781
0.000355035
0.000363687
0.000366661
0.000366178
0.000364426
0.000363001
0.000363089
0.000365781
0.00037243
0.000384888
0.000405804
0.000439229
0.000491821
0.000575217
0.000710866
0.000940543
0.00135196
8.25123e-05
8.72782e-05
9.32315e-05
0.000105129
0.000118891
0.000130906
0.0001478
0.000163911
0.000174311
0.000180905
0.000187441
0.000192581
0.000189748
0.00018108
0.000172414
0.000165841
0.000160243
0.000155863
0.000156136
0.000164157
0.000178543
0.000194384
0.000206995
0.000214182
0.00021631
0.000215038
0.000212114
0.000208861
0.000206362
0.000205739
0.000208316
0.000215569
0.000229318
0.0002521
0.000287833
0.000343062
0.000429331
0.000567975
0.00080068
0.00121517
5.50492e-05
5.47642e-05
5.72257e-05
6.53375e-05
7.71679e-05
8.52335e-05
9.64357e-05
0.000107557
0.000114294
0.000117577
0.000121487
0.000126106
0.000125983
0.000120229
0.000113484
0.000107518
0.000100368
8.94242e-05
7.53906e-05
6.07741e-05
4.82072e-05
3.94068e-05
3.61733e-05
4.00378e-05
4.97834e-05
6.03869e-05
6.68536e-05
6.67556e-05
6.06116e-05
5.07606e-05
4.03683e-05
3.2756e-05
3.12793e-05
3.95011e-05
6.19896e-05
0.00010562
0.000182136
0.000313017
0.000540218
0.000951965
1.95192e-05
2.13398e-05
2.15346e-05
2.35114e-05
2.83821e-05
3.03604e-05
3.37394e-05
3.81861e-05
3.84411e-05
3.42156e-05
2.78127e-05
2.08406e-05
9.70678e-06
-7.15276e-06
-2.59995e-05
-4.28607e-05
-5.68006e-05
-6.83347e-05
-7.6257e-05
-7.78023e-05
-7.17972e-05
-6.1575e-05
-5.25946e-05
-4.88418e-05
-5.10477e-05
-5.74638e-05
-6.54219e-05
-7.25624e-05
-7.72375e-05
-7.83975e-05
-7.52195e-05
-6.67456e-05
-5.15091e-05
-2.71285e-05
1.03574e-05
6.76663e-05
0.00015659
0.000298728
0.000536039
0.000956534
-2.64395e-05
-1.99483e-05
-1.63693e-05
-1.48079e-05
-1.34805e-05
-1.67084e-05
-2.06016e-05
-2.08958e-05
-2.16355e-05
-2.36097e-05
-2.67052e-05
-2.91577e-05
-3.35017e-05
-4.15444e-05
-5.20591e-05
-6.21488e-05
-7.14606e-05
-8.13949e-05
-9.32749e-05
-0.000106629
-0.000120485
-0.000134293
-0.000148622
-0.000164329
-0.000182192
-0.000202359
-0.000224696
-0.000249036
-0.00027556
-0.000304704
-0.000337227
-0.000374152
-0.000417037
-0.000468302
-0.000532005
-0.000615023
-0.000729432
-0.000897194
-0.00116075
-0.00160867
-6.18262e-05
-6.29855e-05
-6.77021e-05
-7.47015e-05
-8.10013e-05
-8.80166e-05
-9.59887e-05
-0.000103647
-0.000113769
-0.000127543
-0.000144399
-0.000162806
-0.000182863
-0.000205257
-0.000228368
-0.000248681
-0.000263126
-0.00027073
-0.000272844
-0.00027296
-0.000274099
-0.000277864
-0.000284597
-0.000293699
-0.000303806
-0.000313249
-0.000320566
-0.000324733
-0.000325181
-0.000321627
-0.000313772
-0.000300982
-0.000281949
-0.00025431
-0.000214033
-0.000154276
-6.31353e-05
8.10613e-05
0.000320267
0.000742408
-0.000109809
-0.000111034
-0.000115227
-0.000121187
-0.000127298
-0.000133731
-0.000140848
-0.000147704
-0.000155512
-0.000164783
-0.000174895
-0.000185099
-0.000195914
-0.000208524
-0.000223057
-0.000238581
-0.000254485
-0.000271267
-0.000289865
-0.000310742
-0.000333655
-0.000358175
-0.000384184
-0.000411984
-0.000442007
-0.000474357
-0.000508834
-0.00054516
-0.000583198
-0.000623101
-0.000665377
-0.000710957
-0.00076135
-0.000818983
-0.000887851
-0.000974717
-0.00109143
-0.00125963
-0.00152129
-0.00196437
-0.000161761
-0.000166756
-0.000177079
-0.000190647
-0.000205931
-0.000222279
-0.000239467
-0.000257161
-0.000276756
-0.000298783
-0.000322485
-0.000346587
-0.000370301
-0.000393
-0.000413121
-0.000428274
-0.000436895
-0.000440762
-0.000444068
-0.000450286
-0.000460362
-0.000473108
-0.000486538
-0.000498898
-0.000509112
-0.000516693
-0.000521419
-0.000523137
-0.000521685
-0.000516828
-0.000508152
-0.000494888
-0.000475655
-0.000448073
-0.000408118
-0.000348965
-0.000258715
-0.000115694
0.000122059
0.000542491
-0.000212582
-0.000215914
-0.000223479
-0.000233089
-0.000243824
-0.000255661
-0.00026825
-0.000280605
-0.000293615
-0.000308187
-0.000324013
-0.000340141
-0.000356425
-0.000373522
-0.000391947
-0.000411576
-0.000432042
-0.000453369
-0.000475987
-0.000500367
-0.000526669
-0.000554782
-0.000584541
-0.00061594
-0.000648933
-0.000683446
-0.000719369
-0.000756606
-0.000795156
-0.000835215
-0.000877272
-0.000922232
-0.000971602
-0.00102784
-0.00109499
-0.00117987
-0.00129434
-0.00146008
-0.00171905
-0.00215924
-0.000280824
-0.000287969
-0.000302799
-0.000322104
-0.000343489
-0.000367037
-0.00039268
-0.000418647
-0.000444302
-0.000469976
-0.000495121
-0.000517777
-0.000535705
-0.000548089
-0.000556484
-0.000563887
-0.000572467
-0.000583018
-0.000595308
-0.000608636
-0.000622089
-0.000634726
-0.000645711
-0.000654438
-0.000660701
-0.00066456
-0.000666136
-0.000665479
-0.000662479
-0.000656823
-0.000647934
-0.000634866
-0.000616094
-0.000589154
-0.000549996
-0.000491799
-0.000402682
-0.000260988
-2.47657e-05
0.000393941
-0.000329611
-0.000331151
-0.000336603
-0.000346191
-0.000358427
-0.000372864
-0.000390067
-0.000408903
-0.000428675
-0.000450091
-0.000473831
-0.000498432
-0.000521189
-0.00054053
-0.000556926
-0.000571766
-0.000586511
-0.000601994
-0.000618708
-0.000636829
-0.000656478
-0.000677648
-0.00070036
-0.00072462
-0.000750401
-0.000777613
-0.000806227
-0.000836262
-0.000867879
-0.000901391
-0.000937373
-0.000976762
-0.00102109
-0.00107281
-0.00113598
-0.00121743
-0.00132906
-0.00149257
-0.00175001
-0.00218944
-0.000416411
-0.000423387
-0.00043738
-0.000458404
-0.000484789
-0.00051398
-0.000544981
-0.000575495
-0.000603732
-0.000628087
-0.000648715
-0.000665905
-0.000680163
-0.000691631
-0.000700764
-0.000707972
-0.000713779
-0.000718409
-0.000722023
-0.000724576
-0.000726065
-0.000726393
-0.000725503
-0.000723257
-0.000719599
-0.000714495
-0.000707977
-0.000700006
-0.000690466
-0.00067905
-0.000665216
-0.000648029
-0.000625985
-0.000596623
-0.000555914
-0.000497063
-0.000408247
-0.000267893
-3.42038e-05
0.000380532
0.00626024
0.00633282
0.00661193
0.00678875
0.00678523
0.00660655
0.00631199
0.00597181
0.00563802
0.00533896
0.00508556
0.00487775
0.0047079
0.00456515
0.00443888
0.00432057
0.00420437
0.00408686
0.00396659
0.00384351
0.00371844
0.00359264
0.00346741
0.00334381
0.00322248
0.00310362
0.00298699
0.00287202
0.00275794
0.0026439
0.00252913
0.00241291
0.0022947
0.00217409
0.00205079
0.00192446
0.00179475
0.00166106
0.00152271
0.00137885
0.00122844
0.00107049
0.000903678
0.000726846
0.0005383
0.0003363
0.000118384
-0.000118806
-0.000378908
-0.000667777
-0.000991539
-0.00135645
-0.00176927
-0.0022376
-0.00276944
-0.0033704
-0.00404679
-0.00479749
-0.00558194
-0.00632104
-0.00690668
-0.007236
-0.00725997
-0.00700451
-0.0065898
-0.00614242
-0.00575588
-0.00546193
-0.00526455
-0.00516382
-0.00513695
-0.00515499
-0.00520161
-0.00526767
-0.00534524
-0.00542925
-0.00551874
-0.00561091
-0.00570706
-0.00580615
-0.00590786
-0.00601179
-0.00611784
-0.00622493
-0.00633364
-0.00644311
-0.00655359
-0.00666379
-0.0067763
-0.00688529
-0.00699468
-0.00710056
-0.00720204
-0.00729703
-0.00739032
-0.00747282
-0.00755196
-0.00762263
-0.00768732
-0.0077407
0.00494282
0.00501658
0.00546885
0.00591024
0.0061758
0.0062258
0.00608499
0.00582536
0.00552343
0.00523276
0.00498031
0.00477462
0.00461207
0.00448114
0.00436829
0.0042622
0.0041555
0.00404453
0.00392836
0.00380779
0.00368444
0.00356014
0.0034364
0.0033143
0.00319443
0.0030769
0.00296143
0.00284745
0.0027342
0.00262086
0.00250663
0.00239083
0.00227291
0.00215246
0.0020292
0.00190295
0.00177341
0.00163996
0.00150188
0.00135832
0.00120823
0.00105059
0.000884084
0.000707568
0.000519341
0.000317686
0.000100177
-0.000136554
-0.000396021
-0.000684032
-0.00100662
-0.00136986
-0.00178045
-0.00224582
-0.00277348
-0.00336871
-0.00403734
-0.0047795
-0.0055562
-0.00628871
-0.00687065
-0.00720116
-0.00723026
-0.00698113
-0.00657203
-0.00612886
-0.00574527
-0.00545329
-0.00525702
-0.00515712
-0.00513083
-0.00514924
-0.00519624
-0.00526279
-0.00534083
-0.00542526
-0.00551516
-0.00560774
-0.00570428
-0.00580372
-0.00590575
-0.00600995
-0.00611625
-0.00622354
-0.00633244
-0.00644206
-0.00655267
-0.00666297
-0.00677559
-0.00688466
-0.00699413
-0.00710008
-0.00720162
-0.00729668
-0.00739001
-0.00747256
-0.00755174
-0.00762246
-0.00768717
-0.0077406
0.00475128
0.00485625
0.00535033
0.00583657
0.006143
0.00622584
0.00610556
0.00585288
0.00554718
0.00524687
0.00498319
0.00476733
0.00459766
0.00446321
0.00434967
0.00424431
0.0041385
0.00402775
0.00391085
0.0037887
0.00366327
0.00353682
0.0034112
0.00328765
0.00316677
0.00304858
0.00293268
0.00281838
0.00270485
0.00259119
0.00247664
0.00236052
0.00224237
0.00212179
0.0019985
0.00187198
0.00174188
0.00160772
0.00146893
0.00132472
0.00117412
0.00101608
0.000849296
0.00067257
0.000484185
0.000282426
6.48614e-05
-0.00017171
-0.000430826
-0.000717909
-0.00103865
-0.00139914
-0.00180529
-0.00226447
-0.00278367
-0.00336752
-0.00402042
-0.00473905
-0.0054859
-0.00619025
-0.00675497
-0.0070877
-0.00713834
-0.00691839
-0.00653537
-0.00611304
-0.00574384
-0.00545849
-0.00526409
-0.00516416
-0.00513678
-0.00515384
-0.00519952
-0.00526486
-0.00534198
-0.00542579
-0.00551521
-0.00560737
-0.00570357
-0.00580276
-0.0059046
-0.00600869
-0.00611491
-0.00622219
-0.00633111
-0.00644079
-0.00655148
-0.00666187
-0.00677458
-0.00688376
-0.00699333
-0.00709939
-0.00720103
-0.00729619
-0.00738961
-0.00747225
-0.00755149
-0.00762229
-0.00768706
-0.00774053
0.00415899
0.00424335
0.00473242
0.00523971
0.00559009
0.00573519
0.00568579
0.00550065
0.00525138
0.00499439
0.00476249
0.00456934
0.00441652
0.00429649
0.00419711
0.00410629
0.00401489
0.00391758
0.00381238
0.00369975
0.00358173
0.00346099
0.00333997
0.00322046
0.00310338
0.00298889
0.00287654
0.0027655
0.0026548
0.00254351
0.00243085
0.00231622
0.00219923
0.00207957
0.00195699
0.00183115
0.00170173
0.00156823
0.00143006
0.00128642
0.00113631
0.000978712
0.000812304
0.000635883
0.000447754
0.000246165
2.87909e-05
-0.000207511
-0.000466163
-0.000752064
-0.00107068
-0.00142798
-0.00182937
-0.00228162
-0.00279137
-0.00336174
-0.00399475
-0.00468699
-0.00540434
-0.00608108
-0.00662819
-0.00696113
-0.00703194
-0.00684163
-0.00648549
-0.00608423
-0.00572895
-0.0054513
-0.00526012
-0.00516124
-0.00513365
-0.00514998
-0.00519507
-0.00526012
-0.00533712
-0.00542094
-0.00551053
-0.00560297
-0.00569948
-0.00579897
-0.00590112
-0.00600549
-0.00611198
-0.00621951
-0.00632864
-0.0064385
-0.00654935
-0.00665989
-0.00677273
-0.00688202
-0.00699169
-0.00709786
-0.00719961
-0.00729491
-0.00738844
-0.00747125
-0.00755061
-0.00762161
-0.00768653
-0.00774012
0.00389276
0.00399568
0.00450984
0.00504525
0.00542466
0.00559835
0.0055752
0.00541196
0.00517921
0.00493355
0.00470882
0.00451983
0.00436941
0.00425142
0.00415462
0.00406715
0.00397951
0.00388578
0.00378346
0.00367267
0.0035554
0.00343453
0.00331293
0.00319275
0.0030752
0.00296053
0.00284822
0.00273726
0.00262654
0.00251499
0.00240186
0.00228659
0.00216889
0.00204854
0.00192538
0.00179908
0.0016693
0.00153545
0.00139688
0.00125278
0.00110217
0.000944111
0.000777264
0.000600491
0.00041204
0.000210232
-7.27598e-06
-0.000243464
-0.00050165
-0.000786476
-0.001103
-0.00145703
-0.0018534
-0.00229813
-0.0027975
-0.00335323
-0.00396582
-0.00463161
-0.00531828
-0.00596461
-0.0064903
-0.00681952
-0.00690792
-0.00674917
-0.00642558
-0.00605048
-0.00571379
-0.00544805
-0.00526211
-0.00516485
-0.00513694
-0.00515225
-0.0051962
-0.00526007
-0.00533608
-0.00541923
-0.00550832
-0.00560039
-0.00569662
-0.00579588
-0.00589789
-0.0060022
-0.00610867
-0.00621625
-0.00632547
-0.00643545
-0.00654638
-0.00665701
-0.00676994
-0.00687935
-0.00698911
-0.00709545
-0.00719734
-0.00729285
-0.00738655
-0.00746963
-0.00754916
-0.00762046
-0.00768561
-0.00773936
0.00356988
0.00366422
0.00417379
0.00470996
0.00509509
0.00527892
0.00526921
0.00512137
0.00490505
0.00467638
0.00446883
0.00429687
0.00416302
0.00406074
0.00397849
0.00390424
0.00382848
0.00374539
0.00365263
0.00355046
0.00344105
0.00332745
0.00321261
0.00309874
0.00298706
0.00287779
0.00277039
0.0026638
0.00255689
0.00244864
0.00233836
0.00222557
0.00211007
0.0019917
0.00187035
0.00174572
0.00161744
0.00148494
0.00134754
0.00120447
0.00105477
0.000897543
0.000731485
0.000555463
0.000367758
0.00016668
-5.00359e-05
-0.000285257
-0.000542175
-0.000825163
-0.00113881
-0.00148863
-0.00187908
-0.00231526
-0.00280302
-0.00334326
-0.00393493
-0.00457352
-0.00522885
-0.00584475
-0.00634984
-0.00667618
-0.00678256
-0.0066566
-0.00636556
-0.00601631
-0.00569762
-0.00544261
-0.00526119
-0.00516439
-0.00513578
-0.00514989
-0.00519267
-0.00525574
-0.00533122
-0.00541403
-0.00550298
-0.00559509
-0.00569144
-0.00579086
-0.00589305
-0.00599755
-0.00610422
-0.00621202
-0.00632142
-0.00643157
-0.00654266
-0.00665345
-0.00676647
-0.00687601
-0.00698583
-0.00709232
-0.00719432
-0.00729006
-0.0073839
-0.00746731
-0.00754702
-0.00761874
-0.00768415
-0.00773816
0.00334124
0.00343549
0.00394415
0.00447591
0.00485473
0.00503262
0.00502034
0.00487615
0.0046707
0.00445936
0.00427403
0.00412689
0.00401786
0.00393772
0.00387321
0.00381196
0.00374521
0.00366834
0.00358018
0.00348208
0.00337693
0.00326798
0.00315801
0.00304884
0.00294132
0.0028354
0.00273043
0.00262543
0.00251945
0.00241169
0.00230165
0.002189
0.00207359
0.00195528
0.00183393
0.00170926
0.00158087
0.00144822
0.00131058
0.00116727
0.00101728
0.000859787
0.000693482
0.000517274
0.00032946
0.000128373
-8.81714e-05
-0.000322949
-0.000578956
-0.000860347
-0.00117122
-0.00151678
-0.00190117
-0.00232849
-0.00280422
-0.00332868
-0.00389915
-0.00451043
-0.00513489
-0.00572121
-0.00620623
-0.00652857
-0.00665018
-0.00655488
-0.00629673
-0.00597482
-0.00567574
-0.00543337
-0.00525823
-0.0051634
-0.0051349
-0.00514879
-0.0051911
-0.0052534
-0.00532823
-0.00541063
-0.00549927
-0.00559117
-0.00568737
-0.00578668
-0.00588881
-0.0059933
-0.00609998
-0.00620785
-0.00631731
-0.00642758
-0.00653876
-0.00664965
-0.00676271
-0.00687235
-0.00698221
-0.00708885
-0.00719093
-0.00728692
-0.00738088
-0.00746466
-0.00754455
-0.00761674
-0.00768243
-0.00773672
0.00320619
0.00332239
0.00384665
0.00437198
0.00472505
0.00486292
0.00480752
0.00463092
0.00441109
0.00420212
0.00403006
0.00390256
0.00381474
0.00375332
0.00370298
0.00365132
0.00359082
0.00351844
0.00343446
0.00334135
0.00324251
0.00314106
0.00303924
0.00293821
0.00283821
0.00273881
0.00263924
0.00253864
0.00243631
0.00233174
0.00222464
0.00211481
0.00200213
0.00188643
0.00176752
0.00164509
0.00151869
0.00138785
0.00125181
0.00110995
0.000961296
0.000805045
0.000639952
0.0004649
0.000278292
7.84357e-05
-0.000136727
-0.000369874
-0.000623814
-0.000902423
-0.00120945
-0.00154956
-0.00192673
-0.00234412
-0.00280664
-0.00331425
-0.00386284
-0.00444655
-0.00504035
-0.00559769
-0.00606243
-0.00637974
-0.00651497
-0.00645013
-0.00622634
-0.00593284
-0.00565391
-0.0054245
-0.00525598
-0.00516291
-0.00513429
-0.00514732
-0.00518861
-0.00524998
-0.00532391
-0.00540568
-0.00549398
-0.00558574
-0.0056819
-0.00578121
-0.0058834
-0.00598803
-0.00609485
-0.00620291
-0.00631254
-0.006423
-0.00653433
-0.00664536
-0.00675849
-0.00686827
-0.00697817
-0.00708499
-0.00718716
-0.00728343
-0.00737751
-0.0074617
-0.00754177
-0.00761446
-0.00768044
-0.00773505
0.0030191
0.00307248
0.00352292
0.00398336
0.00429532
0.00442424
0.00439289
0.00426327
0.00409923
0.00394379
0.00381687
0.00372284
0.00365538
0.0036028
0.00355412
0.00350202
0.00344254
0.00337445
0.00329835
0.00321596
0.00312927
0.00303998
0.0029492
0.00285745
0.00276477
0.00267087
0.00257538
0.00247787
0.00237802
0.00227562
0.00217049
0.00206251
0.00195153
0.00183736
0.00171973
0.00159835
0.00147277
0.00134254
0.00120699
0.0010655
0.000917152
0.000761173
0.000596376
0.000421641
0.000235453
3.61402e-05
-0.000178241
-0.000410248
-0.000662497
-0.000938577
-0.00124191
-0.00157658
-0.00194641
-0.00235378
-0.00280278
-0.0032933
-0.00382009
-0.00437662
-0.00494048
-0.00546958
-0.00591431
-0.00622614
-0.0063735
-0.00633766
-0.00614798
-0.00588355
-0.0056256
-0.00541041
-0.00524994
-0.00515952
-0.00513121
-0.00514399
-0.00518483
-0.00524558
-0.00531899
-0.00540045
-0.00548855
-0.00558024
-0.00567646
-0.00577585
-0.0058781
-0.00598282
-0.00608972
-0.00619793
-0.00630768
-0.00641829
-0.00652974
-0.0066409
-0.00675409
-0.00686399
-0.00697392
-0.00708091
-0.00718318
-0.00727972
-0.00737394
-0.00745854
-0.00753881
-0.00761202
-0.00767831
-0.00773327
0.00489518