/*--------------------------------*- C++ -*----------------------------------*\
| =========                 |                                                 |
| \\      /  F ield         | OpenFOAM: The Open Source CFD Toolbox           |
|  \\    /   O peration     | Version:  2312                                  |
|   \\  /    A nd           | Website:  www.openfoam.com                      |
|    \\/     M anipulation  |                                                 |
\*---------------------------------------------------------------------------*/
FoamFile
{
    version     2.0;
    format      ascii;
    arch        "LSB;label=32;scalar=64";
    class       surfaceScalarField;
    location    "0.9";
    object      phi;
}
// * * * * * * * * * * * * * * * * * * * * * * * * * * * * * * * * * * * * * //

dimensions      [0 3 -1 0 0 0 0];

oriented        oriented;

internalField   nonuniform List<scalar> 
11020
(
3.87754e-06
-6.62287e-08
3.87743e-06
5.17185e-08
3.87761e-06
-4.46179e-08
3.87764e-06
3.71872e-08
3.87748e-06
-3.01982e-08
3.87772e-06
2.47931e-08
3.87726e-06
-2.0619e-08
3.87754e-06
1.62526e-08
3.87683e-06
-1.31765e-08
3.87701e-06
1.16613e-08
3.87617e-06
-7.21958e-09
3.87627e-06
8.64008e-09
3.87538e-06
-3.46596e-09
3.87537e-06
6.58911e-09
3.87449e-06
-1.32811e-09
3.87435e-06
5.32996e-09
3.87355e-06
-2.22932e-11
3.87328e-06
4.64224e-09
3.87254e-06
7.96458e-10
3.8722e-06
4.13785e-09
3.87146e-06
1.22356e-09
3.87101e-06
3.73416e-09
3.87027e-06
1.60495e-09
3.86971e-06
3.56719e-09
3.86892e-06
2.09027e-09
3.86826e-06
3.57892e-09
3.86744e-06
2.53183e-09
3.86669e-06
3.62158e-09
3.86581e-06
2.87124e-09
3.86494e-06
3.69681e-09
3.86388e-06
3.25669e-09
3.86273e-06
4.06916e-09
3.86134e-06
4.11677e-09
3.85977e-06
5.20629e-09
3.85797e-06
5.72295e-09
3.856e-06
6.90307e-09
3.8538e-06
7.58083e-09
3.85137e-06
8.89264e-09
3.84865e-06
1.0069e-08
1.18587e-08
3.84567e-06
4.18297e-06
-6.33417e-08
4.18759e-06
4.70993e-08
4.18402e-06
-4.10427e-08
4.18803e-06
3.31782e-08
4.18446e-06
-2.66363e-08
4.18804e-06
2.12198e-08
4.18467e-06
-1.72564e-08
4.18764e-06
1.32909e-08
4.18448e-06
-1.00245e-08
4.18679e-06
9.35128e-09
4.18402e-06
-4.44903e-09
4.18577e-06
6.89282e-09
4.18341e-06
-1.10473e-09
4.18464e-06
5.3591e-09
4.18264e-06
6.72579e-10
4.1834e-06
4.56814e-09
4.18178e-06
1.59757e-09
4.18218e-06
4.24698e-09
4.18086e-06
2.10921e-09
4.18096e-06
4.03874e-09
4.17972e-06
2.46667e-09
4.17957e-06
3.88175e-09
4.17839e-06
2.78988e-09
4.17805e-06
3.90474e-09
4.17693e-06
3.21054e-09
4.17643e-06
4.08188e-09
4.17532e-06
3.63785e-09
4.17463e-06
4.30944e-09
4.17344e-06
4.06311e-09
4.17247e-06
4.66365e-09
4.17104e-06
4.68934e-09
4.16969e-06
5.41707e-09
4.16802e-06
5.7872e-09
4.16656e-06
6.6669e-09
4.16504e-06
7.24835e-09
4.16377e-06
8.16672e-09
4.16252e-06
8.83384e-09
4.16162e-06
9.79547e-09
4.16103e-06
1.06521e-08
1.17329e-08
4.16116e-06
4.51652e-06
-5.97969e-08
4.52063e-06
4.29824e-08
4.51691e-06
-3.73156e-08
4.52043e-06
2.96562e-08
4.51701e-06
-2.32199e-08
4.52003e-06
1.82072e-08
4.517e-06
-1.42351e-08
4.51936e-06
1.09385e-08
4.51661e-06
-7.27444e-09
4.51834e-06
7.62278e-09
4.51602e-06
-2.13293e-09
4.51725e-06
5.65777e-09
4.51535e-06
8.02619e-10
4.51615e-06
4.55624e-09
4.51452e-06
2.29733e-09
4.51495e-06
4.14731e-09
4.51359e-06
2.94922e-09
4.51372e-06
4.12063e-09
4.51257e-06
3.25872e-09
4.51248e-06
4.13286e-09
4.51139e-06
3.55753e-09
4.51107e-06
4.20134e-09
4.50996e-06
3.89253e-09
4.50946e-06
4.40541e-09
4.50837e-06
4.29977e-09
4.50773e-06
4.7301e-09
4.50663e-06
4.73732e-09
4.50585e-06
5.08505e-09
4.50469e-06
5.22325e-09
4.50361e-06
5.74679e-09
4.50212e-06
6.17484e-09
4.50066e-06
6.8746e-09
4.49899e-06
7.45968e-09
4.49753e-06
8.12746e-09
4.4961e-06
8.67592e-09
4.49494e-06
9.33189e-09
4.49383e-06
9.94497e-09
4.49299e-06
1.0637e-08
4.49239e-06
1.12501e-08
1.18297e-08
4.49229e-06
4.87783e-06
-5.6679e-08
4.881e-06
3.98127e-08
4.8776e-06
-3.39116e-08
4.8805e-06
2.67558e-08
4.87744e-06
-2.01652e-08
4.87992e-06
1.57266e-08
4.87719e-06
-1.15025e-08
4.87906e-06
9.06457e-09
4.87658e-06
-4.78696e-09
4.87782e-06
6.38122e-09
4.87584e-06
-1.60443e-10
4.8766e-06
4.90574e-09
4.87515e-06
2.2457e-09
4.87538e-06
4.32828e-09
4.87441e-06
3.27048e-09
4.87424e-06
4.31221e-09
4.87347e-06
3.72285e-09
4.87308e-06
4.50998e-09
4.87226e-06
4.08207e-09
4.87172e-06
4.67039e-09
4.87086e-06
4.41703e-09
4.87018e-06
4.88094e-09
4.86927e-06
4.80524e-09
4.86847e-06
5.20715e-09
4.86749e-06
5.27279e-09
4.86655e-06
5.66972e-09
4.86541e-06
5.88528e-09
4.86417e-06
6.31611e-09
4.86275e-06
6.64462e-09
4.86138e-06
7.12483e-09
4.85995e-06
7.59823e-09
4.8586e-06
8.23024e-09
4.85728e-06
8.77814e-09
4.85605e-06
9.35379e-09
4.85492e-06
9.80963e-09
4.85397e-06
1.02831e-08
4.85322e-06
1.06888e-08
4.85276e-06
1.10955e-08
4.85261e-06
1.14058e-08
1.16344e-08
4.8528e-06
5.26759e-06
-5.36214e-08
5.27067e-06
3.67278e-08
5.26712e-06
-3.03561e-08
5.26999e-06
2.38799e-08
5.26691e-06
-1.70842e-08
5.26939e-06
1.32455e-08
5.26661e-06
-8.7156e-09
5.26847e-06
7.20177e-09
5.26592e-06
-2.24127e-09
5.26702e-06
5.28817e-09
5.26503e-06
1.82821e-09
5.26567e-06
4.26212e-09
5.26433e-06
3.59166e-09
5.26443e-06
4.22648e-09
5.26359e-06
4.1131e-09
5.26324e-06
4.6626e-09
5.26241e-06
4.54716e-09
5.26194e-06
4.97687e-09
5.26111e-06
4.91388e-09
5.26053e-06
5.25019e-09
5.25965e-06
5.2949e-09
5.25892e-06
5.61546e-09
5.25796e-06
5.76296e-09
5.25707e-06
6.09554e-09
5.25604e-06
6.30906e-09
5.25505e-06
6.65296e-09
5.25397e-06
6.96974e-09
5.25286e-06
7.42805e-09
5.25151e-06
7.99689e-09
5.25e-06
8.62763e-09
5.24839e-06
9.20706e-09
5.24689e-06
9.73632e-09
5.24552e-06
1.01501e-08
5.24435e-06
1.05194e-08
5.24335e-06
1.08131e-08
5.24254e-06
1.10941e-08
5.2419e-06
1.13285e-08
5.24149e-06
1.15035e-08
5.24132e-06
1.15788e-08
1.1581e-08
5.24137e-06
5.68826e-06
-5.04244e-08
5.69157e-06
3.34216e-08
5.68778e-06
-2.65723e-08
5.69066e-06
2.10052e-08
5.68751e-06
-1.39322e-08
5.68997e-06
1.07803e-08
5.68725e-06
-5.99181e-09
5.68901e-06
5.44073e-09
5.68669e-06
7.93502e-11
5.68737e-06
4.60668e-09
5.68576e-06
3.44221e-09
5.68588e-06
4.13532e-09
5.68513e-06
4.34216e-09
5.68481e-06
4.55433e-09
5.684e-06
4.9169e-09
5.68345e-06
5.21494e-09
5.68265e-06
5.34799e-09
5.68203e-06
5.59389e-09
5.68123e-06
5.7119e-09
5.68054e-06
5.94795e-09
5.67969e-06
6.14083e-09
5.67887e-06
6.43053e-09
5.67794e-06
6.69735e-09
5.67699e-06
7.04812e-09
5.67586e-06
7.44145e-09
5.67461e-06
7.90304e-09
5.67317e-06
8.40046e-09
5.67168e-06
8.92114e-09
5.67028e-06
9.3969e-09
5.66897e-06
9.94215e-09
5.66768e-06
1.04925e-08
5.66645e-06
1.09646e-08
5.66524e-06
1.13627e-08
5.66414e-06
1.16216e-08
5.66317e-06
1.1777e-08
5.6624e-06
1.18663e-08
5.66185e-06
1.18812e-08
5.66155e-06
1.18049e-08
5.66148e-06
1.16435e-08
1.13917e-08
5.66167e-06
6.14246e-06
-4.70178e-08
6.14604e-06
2.98457e-08
6.14207e-06
-2.25983e-08
6.14498e-06
1.80892e-08
6.14169e-06
-1.06391e-08
6.14414e-06
8.33199e-09
6.1414e-06
-3.25878e-09
6.14311e-06
3.73486e-09
6.14094e-06
2.24742e-09
6.14145e-06
4.10171e-09
6.14007e-06
4.82311e-09
6.13992e-06
4.27957e-09
6.13913e-06
5.13102e-09
6.13877e-06
4.91789e-09
6.13791e-06
5.7751e-09
6.1373e-06
5.82392e-09
6.13645e-06
6.2026e-09
6.13577e-06
6.26835e-09
6.13489e-06
6.59037e-09
6.13414e-06
6.69919e-09
6.13323e-06
7.05289e-09
6.13238e-06
7.28641e-09
6.13137e-06
7.70107e-09
6.13038e-06
8.0372e-09
6.12931e-06
8.50964e-09
6.12828e-06
8.93429e-09
6.12711e-06
9.57016e-09
6.12581e-06
1.02212e-08
6.1242e-06
1.1011e-08
6.12258e-06
1.15596e-08
6.12106e-06
1.20173e-08
6.11976e-06
1.22592e-08
6.11862e-06
1.25017e-08
6.1176e-06
1.26459e-08
6.11667e-06
1.27034e-08
6.11592e-06
1.26234e-08
6.11534e-06
1.24567e-08
6.11499e-06
1.21562e-08
6.11487e-06
1.17624e-08
1.11615e-08
6.1151e-06
6.63296e-06
-4.34203e-08
6.6367e-06
2.61101e-08
6.63265e-06
-1.85447e-08
6.63558e-06
1.51539e-08
6.6323e-06
-7.35467e-09
6.63452e-06
6.10959e-09
6.63197e-06
-7.04702e-10
6.63326e-06
2.44023e-09
6.63156e-06
3.94951e-09
6.63164e-06
4.02182e-09
6.6308e-06
5.66516e-09
6.63043e-06
4.6495e-09
6.62937e-06
6.18843e-09
6.62899e-06
5.29137e-09
6.62805e-06
6.71518e-09
6.62748e-06
6.4021e-09
6.62651e-06
7.17071e-09
6.62586e-06
6.9215e-09
6.62483e-06
7.61582e-09
6.62407e-06
7.45827e-09
6.62301e-06
8.11664e-09
6.62215e-06
8.14241e-09
6.62105e-06
8.80683e-09
6.62008e-06
9.00147e-09
6.61885e-06
9.74139e-09
6.61755e-06
1.02382e-08
6.61596e-06
1.11561e-08
6.61447e-06
1.17139e-08
6.61301e-06
1.24635e-08
6.61178e-06
1.27903e-08
6.61057e-06
1.32349e-08
6.60943e-06
1.33904e-08
6.60831e-06
1.3625e-08
6.60733e-06
1.36236e-08
6.60641e-06
1.36244e-08
6.60566e-06
1.33788e-08
6.60503e-06
1.30847e-08
6.6046e-06
1.25876e-08
6.60417e-06
1.21855e-08
1.14071e-08
6.60393e-06
7.16267e-06
-3.96625e-08
7.16649e-06
2.22968e-08
7.16235e-06
-1.44043e-08
7.16536e-06
1.21385e-08
7.16213e-06
-4.12771e-09
7.16415e-06
4.09221e-09
7.16173e-06
1.71479e-09
7.16259e-06
1.5849e-09
7.16135e-06
5.18377e-09
7.16107e-06
4.30512e-09
7.1604e-06
6.33393e-09
7.15995e-06
5.10213e-09
7.15894e-06
7.19877e-09
7.15838e-06
5.84547e-09
7.15746e-06
7.63958e-09
7.15679e-06
7.06841e-09
7.15582e-06
8.14124e-09
7.15507e-06
7.66995e-09
7.15402e-06
8.66647e-09
7.15316e-06
8.31917e-09
7.15205e-06
9.23203e-09
7.15104e-06
9.14762e-09
7.14977e-06
1.00775e-08
7.14852e-06
1.02539e-08
7.14698e-06
1.12846e-08
7.14553e-06
1.16871e-08
7.14408e-06
1.25989e-08
7.14287e-06
1.29236e-08
7.14173e-06
1.36068e-08
7.14066e-06
1.38568e-08
7.13954e-06
1.43607e-08
7.13844e-06
1.44925e-08
7.13725e-06
1.48062e-08
7.13609e-06
1.47845e-08
7.13491e-06
1.48053e-08
7.13379e-06
1.45069e-08
7.13269e-06
1.41789e-08
7.13181e-06
1.34717e-08
7.13167e-06
1.23262e-08
1.07442e-08
7.13233e-06
7.73474e-06
-3.57954e-08
7.73855e-06
1.84797e-08
7.73441e-06
-1.02568e-08
7.73732e-06
9.22746e-09
7.73441e-06
-1.21618e-09
7.73589e-06
2.60617e-09
7.73419e-06
3.41337e-09
7.7337e-06
2.08174e-09
7.73354e-06
5.34333e-09
7.73286e-06
4.97966e-09
7.73238e-06
6.81733e-09
7.73156e-06
5.92198e-09
7.73089e-06
7.86812e-09
7.72995e-06
6.78076e-09
7.72926e-06
8.33445e-09
7.7283e-06
8.03163e-09
7.72751e-06
8.92444e-09
7.72648e-06
8.70168e-09
7.72558e-06
9.56705e-09
7.72446e-06
9.44341e-09
7.72343e-06
1.02564e-08
7.7222e-06
1.03806e-08
7.72098e-06
1.12946e-08
7.71946e-06
1.17735e-08
7.71796e-06
1.27845e-08
7.71641e-06
1.32432e-08
7.71505e-06
1.3955e-08
7.71379e-06
1.41872e-08
7.71275e-06
1.46484e-08
7.71186e-06
1.47379e-08
7.71127e-06
1.49514e-08
7.71101e-06
1.47607e-08
7.71114e-06
1.46742e-08
7.71158e-06
1.43411e-08
7.71232e-06
1.40662e-08
7.71319e-06
1.36325e-08
7.71416e-06
1.32165e-08
7.71499e-06
1.26407e-08
7.71515e-06
1.21633e-08
1.12767e-08
7.71462e-06
8.35251e-06
-3.18494e-08
8.35631e-06
1.46841e-08
8.35221e-06
-6.15949e-09
8.35491e-06
6.53059e-09
8.35237e-06
1.32135e-09
8.35327e-06
1.70449e-09
8.35261e-06
4.08211e-09
8.35127e-06
3.41344e-09
8.35108e-06
5.53456e-09
8.35024e-06
5.81776e-09
8.34987e-06
7.19195e-09
8.34889e-06
6.90358e-09
8.34836e-06
8.3956e-09
8.34726e-06
7.88333e-09
8.34661e-06
8.97938e-09
8.34552e-06
9.12314e-09
8.34477e-06
9.67782e-09
8.34361e-06
9.85621e-09
8.34271e-06
1.04702e-08
8.34141e-06
1.07414e-08
8.34027e-06
1.13999e-08
8.33874e-06
1.19107e-08
8.33728e-06
1.27525e-08
8.33566e-06
1.33963e-08
8.33434e-06
1.41038e-08
8.33303e-06
1.45529e-08
8.33196e-06
1.50201e-08
8.33092e-06
1.52269e-08
8.33011e-06
1.54593e-08
8.32946e-06
1.53908e-08
8.32919e-06
1.52191e-08
8.3291e-06
1.48523e-08
8.32926e-06
1.45137e-08
8.32943e-06
1.41699e-08
8.32972e-06
1.3782e-08
8.33003e-06
1.33179e-08
8.33042e-06
1.28252e-08
8.33083e-06
1.2238e-08
8.3314e-06
1.15896e-08
1.0778e-08
8.3319e-06
9.01968e-06
-2.78794e-08
9.02338e-06
1.09796e-08
9.01951e-06
-2.28548e-09
9.02166e-06
4.37622e-09
9.01984e-06
3.14822e-09
9.01946e-06
2.07515e-09
9.01952e-06
4.02317e-09
9.01865e-06
4.28969e-09
9.01809e-06
6.09186e-09
9.01719e-06
6.72218e-09
9.01664e-06
7.73653e-09
9.01572e-06
7.82509e-09
9.01506e-06
9.05293e-09
9.01402e-06
8.92826e-09
9.0132e-06
9.79233e-09
9.01217e-06
1.0161e-08
9.01124e-06
1.06007e-08
9.01012e-06
1.09778e-08
9.00909e-06
1.15066e-08
9.00784e-06
1.1982e-08
9.0065e-06
1.27429e-08
9.00493e-06
1.34828e-08
9.00339e-06
1.42972e-08
9.00188e-06
1.49025e-08
9.00054e-06
1.54408e-08
8.99934e-06
1.57512e-08
8.99837e-06
1.59972e-08
8.99765e-06
1.59428e-08
8.9973e-06
1.58139e-08
8.99713e-06
1.5561e-08
8.99706e-06
1.52837e-08
8.99699e-06
1.49204e-08
8.99694e-06
1.45645e-08
8.99692e-06
1.41933e-08
8.99696e-06
1.37442e-08
8.99707e-06
1.32017e-08
8.99723e-06
1.26725e-08
8.99736e-06
1.21015e-08
8.99744e-06
1.15135e-08
1.09725e-08
8.99724e-06
9.74016e-06
-2.39381e-08
9.74368e-06
7.46272e-09
9.74029e-06
1.10293e-09
9.74167e-06
2.99153e-09
9.74098e-06
3.84065e-09
9.73985e-06
3.20976e-09
9.73958e-06
4.29145e-09
9.73882e-06
5.04921e-09
9.73829e-06
6.61919e-09
9.73739e-06
7.62229e-09
9.73673e-06
8.40114e-09
9.73579e-06
8.76599e-09
9.73503e-06
9.80631e-09
9.734e-06
9.96431e-09
9.73308e-06
1.07088e-08
9.73204e-06
1.11982e-08
9.73099e-06
1.16524e-08
9.72975e-06
1.22191e-08
9.72841e-06
1.28441e-08
9.72684e-06
1.35533e-08
9.72527e-06
1.43096e-08
9.72382e-06
1.4939e-08
9.7226e-06
1.55197e-08
9.72158e-06
1.59141e-08
9.72084e-06
1.61877e-08
9.7203e-06
1.62882e-08
9.71995e-06
1.63442e-08
9.71957e-06
1.63262e-08
9.71907e-06
1.63155e-08
9.71854e-06
1.60869e-08
9.71805e-06
1.57815e-08
9.7176e-06
1.53639e-08
9.71727e-06
1.48954e-08
9.71715e-06
1.43148e-08
9.71711e-06
1.37869e-08
9.71707e-06
1.32421e-08
9.71706e-06
1.26835e-08
9.71705e-06
1.21081e-08
9.71701e-06
1.15545e-08
1.09737e-08
9.71701e-06
1.05183e-05
-2.01331e-08
1.05215e-05
4.28449e-09
1.05196e-05
2.95526e-09
1.05194e-05
3.22027e-09
1.05189e-05
4.28537e-09
1.05178e-05
4.37088e-09
1.05171e-05
4.94634e-09
1.05163e-05
5.84809e-09
1.05159e-05
7.02954e-09
1.05152e-05
8.37335e-09
1.05144e-05
9.17869e-09
1.05134e-05
9.73211e-09
1.05125e-05
1.06686e-08
1.05115e-05
1.1014e-08
1.05105e-05
1.17167e-08
1.05094e-05
1.22927e-08
1.05082e-05
1.28039e-08
1.05069e-05
1.3518e-08
1.05055e-05
1.42967e-08
1.05039e-05
1.51198e-08
1.05024e-05
1.58071e-08
1.0501e-05
1.63151e-08
1.04998e-05
1.67492e-08
1.04986e-05
1.7119e-08
1.04975e-05
1.73528e-08
1.04963e-05
1.74089e-08
1.04954e-05
1.73189e-08
1.04947e-05
1.70106e-08
1.04944e-05
1.65418e-08
1.04944e-05
1.60906e-08
1.04946e-05
1.56487e-08
1.04947e-05
1.52031e-08
1.04949e-05
1.47666e-08
1.04948e-05
1.43436e-08
1.04948e-05
1.38456e-08
1.04947e-05
1.32942e-08
1.04947e-05
1.2715e-08
1.04947e-05
1.21209e-08
1.04947e-05
1.15204e-08
1.09357e-08
1.04948e-05
1.13586e-05
-1.65127e-08
1.13613e-05
1.52095e-09
1.13602e-05
4.10451e-09
1.13594e-05
4.02226e-09
1.13588e-05
4.80302e-09
1.13581e-05
5.08076e-09
1.13574e-05
5.65166e-09
1.13565e-05
6.76367e-09
1.13558e-05
7.75622e-09
1.1355e-05
9.1773e-09
1.13541e-05
1.00386e-08
1.13532e-05
1.06988e-08
1.13522e-05
1.16258e-08
1.13511e-05
1.21049e-08
1.135e-05
1.28358e-08
1.13488e-05
1.35015e-08
1.13474e-05
1.41906e-08
1.13458e-05
1.50674e-08
1.13443e-05
1.58364e-08
1.13429e-05
1.65275e-08
1.13416e-05
1.70885e-08
1.13404e-05
1.75065e-08
1.13394e-05
1.78052e-08
1.13385e-05
1.7962e-08
1.13379e-05
1.79928e-08
1.13375e-05
1.78033e-08
1.13372e-05
1.76057e-08
1.13369e-05
1.73045e-08
1.13365e-05
1.69539e-08
1.13361e-05
1.65296e-08
1.13356e-05
1.6098e-08
1.13353e-05
1.55625e-08
1.1335e-05
1.50207e-08
1.13349e-05
1.44643e-08
1.13348e-05
1.38966e-08
1.13348e-05
1.33088e-08
1.13348e-05
1.27054e-08
1.13349e-05
1.20914e-08
1.13349e-05
1.1473e-08
1.08336e-08
1.1335e-05
1.2266e-05
-1.317e-08
1.22682e-05
-7.32577e-10
1.22675e-05
4.8145e-09
1.22666e-05
4.94448e-09
1.22659e-05
5.48513e-09
1.22652e-05
5.77802e-09
1.22645e-05
6.39463e-09
1.22636e-05
7.65268e-09
1.22628e-05
8.59348e-09
1.22619e-05
1.00323e-08
1.2261e-05
1.09577e-08
1.226e-05
1.16901e-08
1.2259e-05
1.2661e-08
1.22578e-05
1.32809e-08
1.22565e-05
1.40929e-08
1.22551e-05
1.49246e-08
1.22536e-05
1.57455e-08
1.2252e-05
1.66132e-08
1.22506e-05
1.72524e-08
1.22494e-05
1.77503e-08
1.22483e-05
1.81265e-08
1.22475e-05
1.83757e-08
1.22467e-05
1.85311e-08
1.22462e-05
1.85377e-08
1.22457e-05
1.84705e-08
1.22451e-05
1.83828e-08
1.22446e-05
1.81526e-08
1.2244e-05
1.78231e-08
1.22436e-05
1.74413e-08
1.22431e-05
1.69638e-08
1.22428e-05
1.6428e-08
1.22425e-05
1.58182e-08
1.22424e-05
1.51806e-08
1.22423e-05
1.45678e-08
1.22422e-05
1.39491e-08
1.22422e-05
1.3322e-08
1.22422e-05
1.26898e-08
1.22423e-05
1.20572e-08
1.22423e-05
1.14274e-08
1.07919e-08
1.22423e-05
1.32459e-05
-1.01589e-08
1.32476e-05
-2.41152e-09
1.32473e-05
5.15003e-09
1.32464e-05
5.82363e-09
1.32456e-05
6.30869e-09
1.32448e-05
6.56848e-09
1.3244e-05
7.203e-09
1.32431e-05
8.52933e-09
1.32422e-05
9.47253e-09
1.32413e-05
1.0913e-08
1.32403e-05
1.19469e-08
1.32393e-05
1.27472e-08
1.32382e-05
1.37662e-08
1.32369e-05
1.45735e-08
1.32354e-05
1.55673e-08
1.32338e-05
1.64894e-08
1.32323e-05
1.72749e-08
1.3231e-05
1.79325e-08
1.32297e-05
1.85019e-08
1.32286e-05
1.89421e-08
1.32274e-05
1.93008e-08
1.32262e-05
1.95189e-08
1.32251e-05
1.96417e-08
1.32241e-05
1.95503e-08
1.32233e-05
1.92454e-08
1.32229e-05
1.88489e-08
1.32226e-05
1.8441e-08
1.32224e-05
1.79646e-08
1.32224e-05
1.74762e-08
1.32224e-05
1.69523e-08
1.32224e-05
1.64178e-08
1.32224e-05
1.58765e-08
1.32223e-05
1.52828e-08
1.32222e-05
1.46405e-08
1.32222e-05
1.39823e-08
1.32222e-05
1.33176e-08
1.32222e-05
1.26534e-08
1.32223e-05
1.19973e-08
1.32223e-05
1.13509e-08
1.07383e-08
1.32224e-05
1.43042e-05
-7.57556e-09
1.4305e-05
-3.29601e-09
1.43051e-05
5.08171e-09
1.43044e-05
6.53516e-09
1.43035e-05
7.21586e-09
1.43026e-05
7.45741e-09
1.43017e-05
8.11057e-09
1.43008e-05
9.45329e-09
1.42999e-05
1.03803e-08
1.4299e-05
1.18078e-08
1.4298e-05
1.29387e-08
1.42968e-05
1.38836e-08
1.42955e-05
1.51037e-08
1.42939e-05
1.61559e-08
1.42923e-05
1.71798e-08
1.42908e-05
1.80005e-08
1.42895e-05
1.86163e-08
1.42883e-05
1.91323e-08
1.42872e-05
1.95213e-08
1.42864e-05
1.97483e-08
1.42858e-05
1.99145e-08
1.42854e-05
1.99418e-08
1.42851e-05
1.99502e-08
1.42848e-05
1.98582e-08
1.42842e-05
1.98387e-08
1.42834e-05
1.95838e-08
1.42827e-05
1.92092e-08
1.4282e-05
1.86748e-08
1.42814e-05
1.80604e-08
1.4281e-05
1.73833e-08
1.42807e-05
1.66976e-08
1.42806e-05
1.5982e-08
1.42805e-05
1.5303e-08
1.42806e-05
1.46287e-08
1.42806e-05
1.39516e-08
1.42806e-05
1.32724e-08
1.42807e-05
1.25906e-08
1.42808e-05
1.19185e-08
1.42809e-05
1.12688e-08
1.06e-08
1.4281e-05
1.54469e-05
-5.4549e-09
1.54463e-05
-2.73694e-09
1.54472e-05
4.20763e-09
1.54469e-05
6.84124e-09
1.54459e-05
8.16419e-09
1.54449e-05
8.48847e-09
1.54439e-05
9.10544e-09
1.54429e-05
1.04391e-08
1.5442e-05
1.13395e-08
1.54409e-05
1.29187e-08
1.54395e-05
1.42594e-08
1.5438e-05
1.54389e-08
1.54365e-05
1.65849e-08
1.54351e-05
1.7558e-08
1.54338e-05
1.84567e-08
1.54327e-05
1.91623e-08
1.54315e-05
1.97545e-08
1.54304e-05
2.02072e-08
1.54293e-05
2.06184e-08
1.54283e-05
2.08375e-08
1.54272e-05
2.09909e-08
1.54262e-05
2.09583e-08
1.54252e-05
2.08696e-08
1.54245e-05
2.06188e-08
1.5424e-05
2.02919e-08
1.54239e-05
1.97658e-08
1.54238e-05
1.92656e-08
1.54238e-05
1.86804e-08
1.54238e-05
1.80643e-08
1.54238e-05
1.74034e-08
1.54237e-05
1.67288e-08
1.54237e-05
1.60317e-08
1.54237e-05
1.53255e-08
1.54237e-05
1.46129e-08
1.54237e-05
1.39007e-08
1.54238e-05
1.31941e-08
1.54239e-05
1.24948e-08
1.5424e-05
1.18104e-08
1.54241e-05
1.1141e-08
1.04787e-08
1.54243e-05
1.66808e-05
-3.79524e-09
1.66797e-05
-1.67458e-09
1.66805e-05
3.45797e-09
1.66804e-05
6.89285e-09
1.66796e-05
9.02569e-09
1.66785e-05
9.60304e-09
1.66772e-05
1.03331e-08
1.66759e-05
1.17996e-08
1.66745e-05
1.26985e-08
1.66732e-05
1.42026e-08
1.6672e-05
1.54831e-08
1.66707e-05
1.66929e-08
1.66696e-05
1.77657e-08
1.66683e-05
1.87935e-08
1.66671e-05
1.96673e-08
1.6666e-05
2.03138e-08
1.66648e-05
2.08898e-08
1.66637e-05
2.12946e-08
1.66627e-05
2.16257e-08
1.66619e-05
2.16864e-08
1.66612e-05
2.17275e-08
1.66605e-05
2.15735e-08
1.666e-05
2.13804e-08
1.66596e-05
2.10251e-08
1.66593e-05
2.06381e-08
1.66589e-05
2.01894e-08
1.66585e-05
1.96067e-08
1.66583e-05
1.89252e-08
1.66581e-05
1.82194e-08
1.6658e-05
1.74829e-08
1.6658e-05
1.67466e-08
1.6658e-05
1.60039e-08
1.66581e-05
1.52584e-08
1.66582e-05
1.45314e-08
1.66583e-05
1.38037e-08
1.66584e-05
1.30811e-08
1.66585e-05
1.23629e-08
1.66587e-05
1.16798e-08
1.66588e-05
1.10078e-08
1.03284e-08
1.66589e-05
1.8013e-05
-2.4327e-09
1.8012e-05
-6.70115e-10
1.8012e-05
3.47016e-09
1.80122e-05
6.70237e-09
1.80116e-05
9.63013e-09
1.80106e-05
1.06476e-08
1.80093e-05
1.16406e-08
1.80079e-05
1.31741e-08
1.80065e-05
1.41251e-08
1.80051e-05
1.55393e-08
1.80038e-05
1.67564e-08
1.80026e-05
1.79661e-08
1.80014e-05
1.89462e-08
1.80002e-05
1.99645e-08
1.79991e-05
2.08254e-08
1.7998e-05
2.14235e-08
1.79969e-05
2.19564e-08
1.79959e-05
2.22721e-08
1.7995e-05
2.25743e-08
1.7994e-05
2.26287e-08
1.79931e-05
2.26393e-08
1.79923e-05
2.2414e-08
1.79915e-05
2.2123e-08
1.79909e-05
2.16197e-08
1.79906e-05
2.09778e-08
1.79905e-05
2.02277e-08
1.79907e-05
1.94966e-08
1.79908e-05
1.87537e-08
1.7991e-05
1.80438e-08
1.79912e-05
1.73362e-08
1.79912e-05
1.66525e-08
1.79913e-05
1.59219e-08
1.79914e-05
1.5175e-08
1.79915e-05
1.4425e-08
1.79916e-05
1.3673e-08
1.79918e-05
1.29298e-08
1.7992e-05
1.22088e-08
1.79921e-05
1.15118e-08
1.79923e-05
1.08338e-08
1.01668e-08
1.79925e-05
1.94516e-05
-1.36626e-09
1.94506e-05
3.54878e-10
1.94501e-05
4.00276e-09
1.94502e-05
6.5584e-09
1.94499e-05
9.94125e-09
1.9449e-05
1.15402e-08
1.94477e-05
1.29047e-08
1.94463e-05
1.45688e-08
1.94449e-05
1.5605e-08
1.94435e-05
1.69305e-08
1.94422e-05
1.80497e-08
1.94409e-05
1.92332e-08
1.94397e-05
2.01299e-08
1.94386e-05
2.10898e-08
1.94375e-05
2.19384e-08
1.94364e-05
2.24785e-08
1.94354e-05
2.29654e-08
1.94345e-05
2.3195e-08
1.94337e-05
2.34081e-08
1.9433e-05
2.3299e-08
1.94325e-05
2.31686e-08
1.94321e-05
2.27979e-08
1.94318e-05
2.23853e-08
1.94317e-05
2.17905e-08
1.94315e-05
2.11524e-08
1.94313e-05
2.04328e-08
1.94311e-05
1.96585e-08
1.9431e-05
1.88586e-08
1.9431e-05
1.80821e-08
1.9431e-05
1.7313e-08
1.94311e-05
1.65522e-08
1.94312e-05
1.57923e-08
1.94314e-05
1.50272e-08
1.94315e-05
1.42627e-08
1.94317e-05
1.34959e-08
1.94319e-05
1.27531e-08
1.94321e-05
1.20256e-08
1.94323e-05
1.13257e-08
1.94324e-05
1.06474e-08
9.98315e-09
1.94326e-05
2.1005e-05
-5.45265e-10
2.10039e-05
1.42662e-09
2.10033e-05
4.5878e-09
2.1003e-05
6.84506e-09
2.10028e-05
1.01881e-08
2.10022e-05
1.21746e-08
2.10011e-05
1.39912e-08
2.09998e-05
1.58667e-08
2.09984e-05
1.70191e-08
2.09969e-05
1.83818e-08
2.09956e-05
1.93809e-08
2.09943e-05
2.05498e-08
2.0993e-05
2.13459e-08
2.0992e-05
2.21816e-08
2.09909e-05
2.29762e-08
2.09899e-05
2.34441e-08
2.09891e-05
2.38571e-08
2.09883e-05
2.397e-08
2.09876e-05
2.4092e-08
2.0987e-05
2.39153e-08
2.09864e-05
2.37044e-08
2.0986e-05
2.32231e-08
2.09857e-05
2.26715e-08
2.09856e-05
2.19052e-08
2.09856e-05
2.11304e-08
2.09858e-05
2.03241e-08
2.09858e-05
1.95707e-08
2.09859e-05
1.87906e-08
2.0986e-05
1.80128e-08
2.09861e-05
1.72284e-08
2.09862e-05
1.64319e-08
2.09863e-05
1.56327e-08
2.09865e-05
1.48416e-08
2.09867e-05
1.40638e-08
2.09869e-05
1.3293e-08
2.09871e-05
1.25463e-08
2.09873e-05
1.18163e-08
2.09876e-05
1.11171e-08
2.09878e-05
1.04406e-08
9.7809e-09
2.0988e-05
2.26823e-05
8.02394e-11
2.26812e-05
2.47582e-09
2.26806e-05
5.2793e-09
2.268e-05
7.40198e-09
2.26796e-05
1.05788e-08
2.26791e-05
1.26387e-08
2.26783e-05
1.48542e-08
2.26772e-05
1.69642e-08
2.26759e-05
1.82835e-08
2.26745e-05
1.97558e-08
2.26732e-05
2.076e-08
2.26718e-05
2.19172e-08
2.26706e-05
2.25807e-08
2.26695e-05
2.32466e-08
2.26686e-05
2.39118e-08
2.26677e-05
2.4281e-08
2.2667e-05
2.46075e-08
2.26663e-05
2.46108e-08
2.26658e-05
2.46336e-08
2.26654e-05
2.43298e-08
2.26651e-05
2.39845e-08
2.26649e-05
2.33757e-08
2.26649e-05
2.27045e-08
2.26649e-05
2.19007e-08
2.26649e-05
2.11032e-08
2.2665e-05
2.02842e-08
2.26651e-05
1.95037e-08
2.26651e-05
1.87001e-08
2.26653e-05
1.78923e-08
2.26654e-05
1.70681e-08
2.26656e-05
1.62468e-08
2.26658e-05
1.54352e-08
2.2666e-05
1.46254e-08
2.26663e-05
1.38359e-08
2.26665e-05
1.30581e-08
2.26667e-05
1.23091e-08
2.2667e-05
1.15797e-08
2.26672e-05
1.08831e-08
2.26674e-05
1.02107e-08
9.55746e-09
2.26676e-05
2.44934e-05
5.91549e-10
2.44925e-05
3.38865e-09
2.44917e-05
6.10998e-09
2.44909e-05
8.19795e-09
2.44901e-05
1.13263e-08
2.44896e-05
1.3184e-08
2.4489e-05
1.54893e-08
2.44882e-05
1.77198e-08
2.44872e-05
1.93134e-08
2.44859e-05
2.09983e-08
2.44846e-05
2.20676e-08
2.44833e-05
2.3238e-08
2.44821e-05
2.37666e-08
2.44812e-05
2.4212e-08
2.44804e-05
2.47017e-08
2.44797e-05
2.49658e-08
2.44791e-05
2.51803e-08
2.44787e-05
2.50538e-08
2.44784e-05
2.49446e-08
2.44781e-05
2.4542e-08
2.44781e-05
2.40507e-08
2.44781e-05
2.33591e-08
2.44782e-05
2.26422e-08
2.44782e-05
2.18351e-08
2.44783e-05
2.10536e-08
2.44783e-05
2.02177e-08
2.44785e-05
1.93845e-08
2.44786e-05
1.85455e-08
2.44788e-05
1.77009e-08
2.4479e-05
1.68593e-08
2.44792e-05
1.60148e-08
2.44795e-05
1.51796e-08
2.44798e-05
1.43589e-08
2.448e-05
1.35705e-08
2.44803e-05
1.27831e-08
2.44806e-05
1.20348e-08
2.44808e-05
1.13171e-08
2.44811e-05
1.06277e-08
2.44813e-05
9.96475e-09
9.30704e-09
2.44816e-05
2.64492e-05
1.00188e-09
2.64484e-05
4.1722e-09
2.64475e-05
6.97679e-09
2.64466e-05
9.12463e-09
2.64456e-05
1.23414e-08
2.64446e-05
1.4163e-08
2.64435e-05
1.65433e-08
2.64426e-05
1.86738e-08
2.64417e-05
2.02055e-08
2.64408e-05
2.18717e-08
2.644e-05
2.28715e-08
2.64392e-05
2.40149e-08
2.64384e-05
2.45929e-08
2.64376e-05
2.49701e-08
2.6437e-05
2.53201e-08
2.64366e-05
2.54093e-08
2.64363e-05
2.54863e-08
2.64361e-05
2.52186e-08
2.64361e-05
2.4972e-08
2.64361e-05
2.4482e-08
2.64362e-05
2.39902e-08
2.64362e-05
2.33542e-08
2.64362e-05
2.26243e-08
2.64363e-05
2.1789e-08
2.64364e-05
2.09388e-08
2.64366e-05
2.00381e-08
2.64368e-05
1.91682e-08
2.6437e-05
1.83003e-08
2.64373e-05
1.74308e-08
2.64376e-05
1.65706e-08
2.64379e-05
1.57131e-08
2.64382e-05
1.48755e-08
2.64385e-05
1.40499e-08
2.64388e-05
1.32528e-08
2.64391e-05
1.24758e-08
2.64394e-05
1.17323e-08
2.64397e-05
1.10143e-08
2.644e-05
1.03318e-08
2.64403e-05
9.67753e-09
9.0457e-09
2.64406e-05
2.8561e-05
1.33434e-09
2.85603e-05
4.87925e-09
2.85594e-05
7.80865e-09
2.85585e-05
1.0081e-08
2.85575e-05
1.33687e-08
2.85565e-05
1.51012e-08
2.85555e-05
1.75261e-08
2.85546e-05
1.96076e-08
2.85538e-05
2.10415e-08
2.8553e-05
2.26742e-08
2.85522e-05
2.35984e-08
2.85516e-05
2.46484e-08
2.8551e-05
2.51884e-08
2.85505e-05
2.55218e-08
2.855e-05
2.5791e-08
2.85496e-05
2.57722e-08
2.85494e-05
2.57558e-08
2.85492e-05
2.5391e-08
2.85491e-05
2.50331e-08
2.85492e-05
2.44334e-08
2.85493e-05
2.38208e-08
2.85497e-05
2.30418e-08
2.85501e-05
2.22276e-08
2.85505e-05
2.13811e-08
2.85508e-05
2.0554e-08
2.85512e-05
1.96912e-08
2.85515e-05
1.88215e-08
2.85519e-05
1.79473e-08
2.85523e-05
1.70696e-08
2.85526e-05
1.6202e-08
2.8553e-05
1.53407e-08
2.85534e-05
1.45024e-08
2.85537e-05
1.3681e-08
2.85541e-05
1.28906e-08
2.85545e-05
1.21241e-08
2.85548e-05
1.1392e-08
2.85551e-05
1.06875e-08
2.85554e-05
1.00184e-08
2.85557e-05
9.37886e-09
8.78932e-09
2.8556e-05
3.08414e-05
1.60963e-09
3.08408e-05
5.47246e-09
3.084e-05
8.6244e-09
3.08391e-05
1.10039e-08
3.08381e-05
1.43847e-08
3.08371e-05
1.60125e-08
3.08363e-05
1.8412e-08
3.08354e-05
2.0462e-08
3.08347e-05
2.17934e-08
3.0834e-05
2.33606e-08
3.08334e-05
2.41729e-08
3.08329e-05
2.51261e-08
3.08325e-05
2.5581e-08
3.08322e-05
2.58085e-08
3.0832e-05
2.59825e-08
3.0832e-05
2.58444e-08
3.0832e-05
2.57279e-08
3.08321e-05
2.52756e-08
3.08323e-05
2.4833e-08
3.08326e-05
2.41615e-08
3.08329e-05
2.34856e-08
3.08333e-05
2.26719e-08
3.08337e-05
2.18523e-08
3.08341e-05
2.09817e-08
3.08345e-05
2.01196e-08
3.08349e-05
1.92458e-08
3.08354e-05
1.83707e-08
3.08359e-05
1.74922e-08
3.08363e-05
1.66115e-08
3.08368e-05
1.57428e-08
3.08372e-05
1.48851e-08
3.08377e-05
1.40531e-08
3.08381e-05
1.32425e-08
3.08385e-05
1.24653e-08
3.08389e-05
1.17186e-08
3.08393e-05
1.1014e-08
3.08397e-05
1.03275e-08
3.084e-05
9.67541e-09
3.08403e-05
9.05357e-09
8.47737e-09
3.08407e-05
3.33039e-05
1.79203e-09
3.33034e-05
6.03376e-09
3.33026e-05
9.35524e-09
3.33017e-05
1.1895e-08
3.33008e-05
1.53164e-08
3.32999e-05
1.68889e-08
3.32992e-05
1.91349e-08
3.32985e-05
2.11897e-08
3.32979e-05
2.24163e-08
3.32973e-05
2.39407e-08
3.32968e-05
2.4651e-08
3.32964e-05
2.55209e-08
3.32961e-05
2.58985e-08
3.32959e-05
2.60019e-08
3.32958e-05
2.60591e-08
3.32959e-05
2.57874e-08
3.32961e-05
2.55348e-08
3.32964e-05
2.49532e-08
3.32968e-05
2.43786e-08
3.32974e-05
2.35967e-08
3.32981e-05
2.28142e-08
3.32988e-05
2.19433e-08
3.32995e-05
2.11605e-08
3.33001e-05
2.03505e-08
3.33007e-05
1.95364e-08
3.33013e-05
1.87004e-08
3.33018e-05
1.78533e-08
3.33023e-05
1.69725e-08
3.33028e-05
1.60887e-08
3.33034e-05
1.52031e-08
3.33039e-05
1.43441e-08
3.33044e-05
1.35247e-08
3.33049e-05
1.2733e-08
3.33054e-05
1.19767e-08
3.33059e-05
1.12501e-08
3.33063e-05
1.05585e-08
3.33068e-05
9.89744e-09
3.33072e-05
9.27051e-09
3.33076e-05
8.67406e-09
8.10084e-09
3.33079e-05
3.59629e-05
1.97243e-09
3.59625e-05
6.51332e-09
3.59617e-05
1.00903e-08
3.59609e-05
1.26832e-08
3.59602e-05
1.60999e-08
3.59594e-05
1.76468e-08
3.59588e-05
1.97327e-08
3.59582e-05
2.17739e-08
3.59577e-05
2.28923e-08
3.59574e-05
2.43117e-08
3.59572e-05
2.4874e-08
3.59571e-05
2.5562e-08
3.59572e-05
2.5822e-08
3.59575e-05
2.57405e-08
3.59579e-05
2.56294e-08
3.59585e-05
2.5196e-08
3.59592e-05
2.48221e-08
3.596e-05
2.41666e-08
3.59608e-05
2.35686e-08
3.59615e-05
2.28353e-08
3.59621e-05
2.22439e-08
3.59626e-05
2.14982e-08
3.5963e-05
2.07344e-08
3.59634e-05
1.99028e-08
3.59639e-05
1.90373e-08
3.59645e-05
1.81302e-08
3.59652e-05
1.71838e-08
3.59659e-05
1.62734e-08
3.59666e-05
1.5407e-08
3.59671e-05
1.46051e-08
3.59677e-05
1.37962e-08
3.59682e-05
1.30146e-08
3.59687e-05
1.22576e-08
3.59691e-05
1.15325e-08
3.59695e-05
1.08352e-08
3.59699e-05
1.01703e-08
3.59703e-05
9.53457e-09
3.59706e-05
8.93059e-09
3.5971e-05
8.35567e-09
7.81983e-09
3.59712e-05
3.88347e-05
1.7516e-09
3.88334e-05
7.83797e-09
3.88332e-05
1.02127e-08
3.88322e-05
1.37342e-08
3.88321e-05
1.61613e-08
3.88312e-05
1.85622e-08
3.88311e-05
1.98223e-08
3.88304e-05
2.24843e-08
3.88302e-05
2.30467e-08
3.88297e-05
2.48585e-08
3.88296e-05
2.49632e-08
3.88293e-05
2.58648e-08
3.88293e-05
2.57966e-08
3.88292e-05
2.58952e-08
3.88293e-05
2.54896e-08
3.88294e-05
2.51525e-08
3.88297e-05
2.45246e-08
3.88299e-05
2.39052e-08
3.88304e-05