/*--------------------------------*- C++ -*----------------------------------*\
| =========                 |                                                 |
| \\      /  F ield         | OpenFOAM: The Open Source CFD Toolbox           |
|  \\    /   O peration     | Version:  2312                                  |
|   \\  /    A nd           | Website:  www.openfoam.com                      |
|    \\/     M anipulation  |                                                 |
\*---------------------------------------------------------------------------*/
FoamFile
{
    version     2.0;
    format      ascii;
    arch        "LSB;label=32;scalar=64";
    class       volVectorField;
    location    "0.9";
    object      U;
}
// * * * * * * * * * * * * * * * * * * * * * * * * * * * * * * * * * * * * * //

dimensions      [0 1 -1 0 0 0 0];

internalField   nonuniform List<vector> 
5600
(
(0.971767 -0.00084265 0)
(1.02742 0.000722442 0)
(0.974356 -0.000671184 0)
(1.02497 0.000607698 0)
(0.976912 -0.000535282 0)
(1.02253 0.000477351 0)
(0.979248 -0.00043372 0)
(1.02019 0.000368122 0)
(0.981367 -0.000333525 0)
(1.01796 0.00030809 0)
(0.983235 -0.000225961 0)
(1.01583 0.000265233 0)
(0.984903 -0.000141983 0)
(1.01383 0.000233114 0)
(0.986373 -8.28399e-05 0)
(1.01196 0.000214299 0)
(0.987661 -3.53677e-05 0)
(1.01022 0.000210997 0)
(0.988775 3.28104e-06 0)
(1.00861 0.000213166 0)
(0.989716 3.01831e-05 0)
(1.0071 0.000215642 0)
(0.990483 6.19001e-05 0)
(1.00569 0.000230819 0)
(0.991087 0.000109525 0)
(1.00437 0.000262016 0)
(0.99154 0.00016648 0)
(1.00312 0.000301449 0)
(0.991851 0.000225484 0)
(1.00192 0.000345597 0)
(0.992016 0.000293122 0)
(1.00076 0.000420582 0)
(0.992033 0.000427541 0)
(0.999626 0.000618399 0)
(0.99194 0.000721774 0)
(0.998561 0.000979994 0)
(0.991806 0.00115681 0)
(0.99758 0.00150392 0)
(0.991696 0.00185393 0)
(0.997045 0.00242311 0)
(0.987384 -0.000861126 0)
(1.01102 0.000711588 0)
(0.989844 -0.000665833 0)
(1.00913 0.000593837 0)
(0.991987 -0.000518103 0)
(1.00733 0.000455119 0)
(0.993696 -0.00040361 0)
(1.00578 0.000343263 0)
(0.99501 -0.000288883 0)
(1.00441 0.000286281 0)
(0.995966 -0.000170126 0)
(1.00322 0.000247822 0)
(0.996668 -7.8683e-05 0)
(1.00221 0.000222989 0)
(0.99715 -1.54982e-05 0)
(1.00133 0.000216073 0)
(0.997457 3.58672e-05 0)
(1.00056 0.000226543 0)
(0.997613 7.96559e-05 0)
(0.999881 0.000243566 0)
(0.997639 0.000117443 0)
(0.99926 0.000264733 0)
(0.99755 0.000162416 0)
(0.998677 0.000302943 0)
(0.997365 0.000229573 0)
(0.998113 0.000362273 0)
(0.997096 0.000312277 0)
(0.997554 0.000436757 0)
(0.996753 0.0004095 0)
(0.996989 0.000535689 0)
(0.996347 0.000545216 0)
(0.996425 0.000702579 0)
(0.995918 0.000792086 0)
(0.995895 0.00103823 0)
(0.995493 0.0012392 0)
(0.995401 0.00157104 0)
(0.995123 0.00186061 0)
(0.99509 0.00230213 0)
(0.995103 0.00277628 0)
(0.995455 0.00344002 0)
(0.996959 -0.000773316 0)
(1.00198 0.000601487 0)
(0.997666 -0.000569074 0)
(1.00139 0.00048478 0)
(0.998312 -0.000416633 0)
(1.00081 0.000349367 0)
(0.998712 -0.000302424 0)
(1.00037 0.000244387 0)
(0.998902 -0.000188967 0)
(0.999957 0.000196135 0)
(0.998927 -7.61803e-05 0)
(0.999596 0.000167194 0)
(0.998878 9.45091e-06 0)
(0.99928 0.000153726 0)
(0.99876 6.91473e-05 0)
(0.998969 0.000158526 0)
(0.998587 0.000109585 0)
(0.998657 0.000179822 0)
(0.998362 0.000142029 0)
(0.998335 0.000206252 0)
(0.998087 0.000183267 0)
(0.997991 0.000241035 0)
(0.997764 0.000234132 0)
(0.997623 0.000292245 0)
(0.997401 0.00030246 0)
(0.997223 0.00036427 0)
(0.996998 0.000389233 0)
(0.996794 0.000456093 0)
(0.996563 0.000499472 0)
(0.99634 0.000589772 0)
(0.996105 0.000683392 0)
(0.99588 0.000833298 0)
(0.995659 0.000987185 0)
(0.995444 0.00117717 0)
(0.995235 0.00136634 0)
(0.995039 0.00159843 0)
(0.994891 0.00184881 0)
(0.994821 0.0021497 0)
(0.994897 0.00246863 0)
(0.995221 0.00281537 0)
(0.999574 -0.000765087 0)
(0.999831 0.000591043 0)
(0.999435 -0.000549259 0)
(0.999763 0.000473621 0)
(0.999496 -0.000393292 0)
(0.999616 0.000335608 0)
(0.999455 -0.000275184 0)
(0.999473 0.000234636 0)
(0.999326 -0.000153587 0)
(0.999267 0.000192661 0)
(0.999123 -3.93058e-05 0)
(0.999055 0.000168935 0)
(0.998938 4.48113e-05 0)
(0.998845 0.000162026 0)
(0.998729 0.000107323 0)
(0.998609 0.000177802 0)
(0.998495 0.000150287 0)
(0.998356 0.000211468 0)
(0.998232 0.000192734 0)
(0.998076 0.000251732 0)
(0.997933 0.000243477 0)
(0.997757 0.000301489 0)
(0.997592 0.000309789 0)
(0.997402 0.000370903 0)
(0.997217 0.000397272 0)
(0.99701 0.000466606 0)
(0.996805 0.000513113 0)
(0.996587 0.000597522 0)
(0.996373 0.00067102 0)
(0.99616 0.000783974 0)
(0.995957 0.000902357 0)
(0.995755 0.00106964 0)
(0.995557 0.00124396 0)
(0.995362 0.00144895 0)
(0.995186 0.00165733 0)
(0.995043 0.00190474 0)
(0.994961 0.00217172 0)
(0.99497 0.00248103 0)
(0.995127 0.00280611 0)
(0.995523 0.00315343 0)
(0.999978 -0.000697723 0)
(0.999565 0.000518944 0)
(0.999675 -0.000470895 0)
(0.999567 0.000396417 0)
(0.999626 -0.000314137 0)
(0.999504 0.000260657 0)
(0.999519 -0.000195309 0)
(0.999403 0.000166079 0)
(0.999359 -7.3985e-05 0)
(0.999213 0.000136858 0)
(0.999107 3.27487e-05 0)
(0.999001 0.000127054 0)
(0.998917 0.000102332 0)
(0.998798 0.000142478 0)
(0.998707 0.00014018 0)
(0.998563 0.000176967 0)
(0.998459 0.000180649 0)
(0.998314 0.000219874 0)
(0.998195 0.000230073 0)
(0.998044 0.000269654 0)
(0.997904 0.000289431 0)
(0.997736 0.000334418 0)
(0.997572 0.000366758 0)
(0.997388 0.000421079 0)
(0.997203 0.000468844 0)
(0.997004 0.000536427 0)
(0.996802 0.000602994 0)
(0.996596 0.00069395 0)
(0.996391 0.000799281 0)
(0.99619 0.000937941 0)
(0.995998 0.00108626 0)
(0.995817 0.00125384 0)
(0.99564 0.00142525 0)
(0.99547 0.00161492 0)
(0.99532 0.00181174 0)
(0.995207 0.00202762 0)
(0.995154 0.00225014 0)
(0.995189 0.00248514 0)
(0.995358 0.00271729 0)
(0.995749 0.00294723 0)
(1.00001 -0.000682106 0)
(0.999565 0.000500234 0)
(0.999715 -0.00043816 0)
(0.999557 0.000374944 0)
(0.999627 -0.000281023 0)
(0.999501 0.000237146 0)
(0.999514 -0.000156937 0)
(0.999413 0.000148794 0)
(0.999373 -2.9606e-05 0)
(0.999239 0.000132535 0)
(0.99911 7.16639e-05 0)
(0.999011 0.000126222 0)
(0.99892 0.000131109 0)
(0.998799 0.000155435 0)
(0.998718 0.000171306 0)
(0.998568 0.000202791 0)
(0.998459 0.00022031 0)
(0.998316 0.000253574 0)
(0.998191 0.000275756 0)
(0.998047 0.000313054 0)
(0.997908 0.000346061 0)
(0.99775 0.000392667 0)
(0.99759 0.000439394 0)
(0.997416 0.000499362 0)
(0.997236 0.000564724 0)
(0.997047 0.000644973 0)
(0.996853 0.000736235 0)
(0.996663 0.000844811 0)
(0.996481 0.000969261 0)
(0.996305 0.00111478 0)
(0.996133 0.00127939 0)
(0.995962 0.00145347 0)
(0.995798 0.00163065 0)
(0.995645 0.00181279 0)
(0.995517 0.00200122 0)
(0.995427 0.00219567 0)
(0.995398 0.00239293 0)
(0.995455 0.00258979 0)
(0.995648 0.00278296 0)
(0.99606 0.00297043 0)
(1 -0.000618794 0)
(0.999575 0.000430899 0)
(0.999735 -0.000360672 0)
(0.999572 0.000307806 0)
(0.999625 -0.000207255 0)
(0.999504 0.00017099 0)
(0.999501 -8.76857e-05 0)
(0.999414 9.12384e-05 0)
(0.999375 3.56336e-05 0)
(0.999261 0.000105873 0)
(0.999134 0.000120879 0)
(0.999035 0.000123791 0)
(0.998933 0.000150881 0)
(0.998806 0.00016352 0)
(0.998729 0.000201428 0)
(0.998581 0.000224798 0)
(0.998469 0.000253546 0)
(0.99833 0.000281423 0)
(0.998199 0.000313969 0)
(0.998057 0.000349966 0)
(0.997917 0.000392873 0)
(0.997763 0.000443005 0)
(0.997608 0.000500534 0)
(0.997442 0.000568269 0)
(0.997273 0.000647664 0)
(0.997097 0.00074184 0)
(0.996921 0.000854042 0)
(0.996744 0.000983756 0)
(0.996576 0.00113259 0)
(0.996415 0.00128927 0)
(0.996265 0.00145499 0)
(0.996112 0.00162222 0)
(0.995968 0.00179518 0)
(0.99583 0.0019689 0)
(0.995722 0.00214683 0)
(0.995646 0.00232285 0)
(0.995632 0.0024963 0)
(0.995694 0.00265961 0)
(0.99589 0.0028105 0)
(0.996302 0.00294326 0)
(1 -0.000590827 0)
(0.999584 0.00039677 0)
(0.999736 -0.000315104 0)
(0.999595 0.000275839 0)
(0.999635 -0.000161956 0)
(0.999521 0.000141524 0)
(0.999495 -4.2138e-05 0)
(0.999413 7.12537e-05 0)
(0.999363 7.40919e-05 0)
(0.999269 0.000103278 0)
(0.999158 0.000147106 0)
(0.999062 0.000135289 0)
(0.998954 0.000181971 0)
(0.998823 0.000180346 0)
(0.998741 0.000235587 0)
(0.998601 0.000252458 0)
(0.998488 0.000293992 0)
(0.998354 0.000316484 0)
(0.998223 0.000364227 0)
(0.998079 0.000395134 0)
(0.997939 0.000453806 0)
(0.997783 0.00050214 0)
(0.997634 0.000576566 0)
(0.99747 0.000644932 0)
(0.997313 0.000742363 0)
(0.997146 0.000842282 0)
(0.996988 0.00098081 0)
(0.996832 0.00112512 0)
(0.99669 0.00130012 0)
(0.996542 0.00146753 0)
(0.996404 0.00164633 0)
(0.99626 0.00180939 0)
(0.996131 0.0019821 0)
(0.996008 0.00214097 0)
(0.995915 0.00230247 0)
(0.99585 0.00244308 0)
(0.995841 0.00257515 0)
(0.995901 0.00268024 0)
(0.996085 0.00277296 0)
(0.996472 0.00284768 0)
(1.00001 -0.00052883 0)
(0.999596 0.000329948 0)
(0.999724 -0.000241637 0)
(0.999612 0.000216265 0)
(0.999652 -9.52707e-05 0)
(0.999544 8.91512e-05 0)
(0.999505 1.47602e-05 0)
(0.999414 3.64375e-05 0)
(0.999351 0.000116824 0)
(0.999264 0.000105643 0)
(0.99917 0.000167972 0)
(0.999081 0.00014315 0)
(0.998976 0.000220368 0)
(0.998848 0.000191422 0)
(0.998756 0.000274222 0)
(0.998627 0.000271743 0)
(0.998514 0.000340343 0)
(0.998383 0.000343889 0)
(0.998256 0.000421334 0)
(0.998109 0.000433919 0)
(0.997974 0.000522104 0)
(0.997815 0.000555917 0)
(0.997671 0.000662005 0)
(0.99751 0.000722721 0)
(0.997367 0.000855945 0)
(0.997217 0.00095689 0)
(0.997085 0.00113082 0)
(0.996943 0.00126866 0)
(0.996813 0.00145615 0)
(0.996674 0.00160153 0)
(0.996546 0.0017935 0)
(0.996412 0.001956 0)
(0.996291 0.00216414 0)
(0.996171 0.00234369 0)
(0.99607 0.00254806 0)
(0.995988 0.00270632 0)
(0.995952 0.00286599 0)
(0.995986 0.00296037 0)
(0.996158 0.00300444 0)
(0.996588 0.00288677 0)
(1.00002 -0.000491195 0)
(0.999611 0.000287864 0)
(0.999718 -0.0001882 0)
(0.999621 0.000174609 0)
(0.99967 -4.6097e-05 0)
(0.999563 6.38157e-05 0)
(0.999523 5.82273e-05 0)
(0.99942 3.20987e-05 0)
(0.999356 0.000128992 0)
(0.999262 0.000117563 0)
(0.999181 0.000186161 0)
(0.999089 0.000163026 0)
(0.998997 0.000248645 0)
(0.998873 0.000217979 0)
(0.998776 0.000305619 0)
(0.998652 0.000305376 0)
(0.998546 0.000379933 0)
(0.998411 0.000386808 0)
(0.998295 0.000472957 0)
(0.998143 0.000490883 0)
(0.998018 0.000587997 0)
(0.997858 0.000628881 0)
(0.997727 0.000747674 0)
(0.997572 0.000825595 0)
(0.997448 0.000982058 0)
(0.997309 0.00109864 0)
(0.997193 0.0012723 0)
(0.997058 0.00139825 0)
(0.996942 0.00157463 0)
(0.996819 0.00171271 0)
(0.996719 0.00189977 0)
(0.996621 0.00205492 0)
(0.99654 0.00224806 0)
(0.996451 0.00240392 0)
(0.996367 0.00258105 0)
(0.996283 0.00271914 0)
(0.996212 0.0028653 0)
(0.996117 0.00295335 0)
(0.995937 0.00299242 0)
(0.995523 0.00287144 0)
(1.00002 -0.000431315 0)
(0.999633 0.000225692 0)
(0.999715 -0.000117996 0)
(0.999634 0.000124014 0)
(0.999679 4.59709e-06 0)
(0.999583 3.32238e-05 0)
(0.999539 8.21452e-05 0)
(0.999431 6.25262e-05 0)
(0.999366 0.000125919 0)
(0.999272 0.000138631 0)
(0.999193 0.000192449 0)
(0.999098 0.000194321 0)
(0.999015 0.000261906 0)
(0.998898 0.000258958 0)
(0.998798 0.000324976 0)
(0.998679 0.000352827 0)
(0.998577 0.000407466 0)
(0.99844 0.0004439 0)
(0.998332 0.000512485 0)
(0.998182 0.000562506 0)
(0.998065 0.000647371 0)
(0.997912 0.000722978 0)
(0.997794 0.000836329 0)
(0.997656 0.000949276 0)
(0.997549 0.00109637 0)
(0.997419 0.00122891 0)
(0.99731 0.00137889 0)
(0.997186 0.00151132 0)
(0.997084 0.00166458 0)
(0.996976 0.00180498 0)
(0.996886 0.00195786 0)
(0.996787 0.00208628 0)
(0.996691 0.00221155 0)
(0.996584 0.00231336 0)
(0.996489 0.00241878 0)
(0.996399 0.00251356 0)
(0.996315 0.00260778 0)
(0.9962 0.00268051 0)
(0.996009 0.00273997 0)
(0.995634 0.00278165 0)
(1.00002 -0.000387236 0)
(0.999661 0.00018029 0)
(0.999718 -6.49689e-05 0)
(0.999651 8.69616e-05 0)
(0.999683 4.42231e-05 0)
(0.9996 3.07316e-05 0)
(0.999556 8.31309e-05 0)
(0.999446 8.87622e-05 0)
(0.99938 0.000139712 0)
(0.999288 0.000161433 0)
(0.999209 0.000206926 0)
(0.999113 0.000221495 0)
(0.999034 0.000282357 0)
(0.998923 0.000295116 0)
(0.998822 0.000354219 0)
(0.998707 0.000394577 0)
(0.998609 0.000446555 0)
(0.998474 0.000497328 0)
(0.998372 0.000563984 0)
(0.998229 0.000630252 0)
(0.998122 0.000719614 0)
(0.997981 0.000820175 0)
(0.997878 0.000945978 0)
(0.997753 0.0010742 0)
(0.997655 0.00121396 0)
(0.997533 0.00134739 0)
(0.997431 0.00149047 0)
(0.997318 0.00162233 0)
(0.997226 0.00175351 0)
(0.997125 0.00186702 0)
(0.997032 0.0019778 0)
(0.996927 0.00207649 0)
(0.996833 0.00217912 0)
(0.996745 0.00228164 0)
(0.996671 0.00239286 0)
(0.996596 0.00250086 0)
(0.996509 0.00260417 0)
(0.996375 0.00269178 0)
(0.996151 0.00276444 0)
(0.995733 0.00281922 0)
(1.00002 -0.000330885 0)
(0.99969 0.000124538 0)
(0.999724 -8.45381e-07 0)
(0.99967 5.2557e-05 0)
(0.999691 6.59607e-05 0)
(0.999614 4.95707e-05 0)
(0.999571 8.17117e-05 0)
(0.999464 0.000101546 0)
(0.999399 0.000152149 0)
(0.999307 0.00018669 0)
(0.999228 0.000224947 0)
(0.999133 0.000249675 0)
(0.999057 0.000305727 0)
(0.998948 0.000331032 0)
(0.99885 0.000387719 0)
(0.998737 0.00043635 0)
(0.998644 0.000490913 0)
(0.998512 0.000552336 0)
(0.998417 0.00062524 0)
(0.998283 0.000707112 0)
(0.99819 0.000807982 0)
(0.998067 0.000920706 0)
(0.997976 0.00104643 0)
(0.99786 0.00116842 0)
(0.99777 0.00129285 0)
(0.997661 0.0014109 0)
(0.997566 0.00153503 0)
(0.99745 0.00165357 0)
(0.997346 0.00177631 0)
(0.997237 0.00189113 0)
(0.997146 0.00200737 0)
(0.997059 0.00211589 0)
(0.996988 0.00222499 0)
(0.996917 0.00232778 0)
(0.996853 0.00242895 0)
(0.996778 0.00252174 0)
(0.996683 0.00260829 0)
(0.996536 0.00268443 0)
(0.9963 0.00275322 0)
(0.995881 0.00281467 0)
(1.00002 -0.000283637 0)
(0.999724 8.01009e-05 0)
(0.999733 3.57778e-05 0)
(0.999685 4.5577e-05 0)
(0.999704 6.87692e-05 0)
(0.999629 7.344e-05 0)
(0.999588 9.39444e-05 0)
(0.999484 0.000120762 0)
(0.999422 0.000162238 0)
(0.999329 0.000206677 0)
(0.99925 0.000243824 0)
(0.999157 0.00027847 0)
(0.999084 0.000331399 0)
(0.998976 0.000367916 0)
(0.998884 0.000423823 0)
(0.998771 0.000480123 0)
(0.998684 0.00053895 0)
(0.998559 0.000612045 0)
(0.998473 0.000695231 0)
(0.998352 0.000796288 0)
(0.99827 0.000906135 0)
(0.998155 0.00102015 0)
(0.998069 0.0011349 0)
(0.997957 0.0012495 0)
(0.997869 0.00136578 0)
(0.997763 0.00147965 0)
(0.997677 0.0015942 0)
(0.997583 0.00170402 0)
(0.997505 0.00181505 0)
(0.99742 0.00192358 0)
(0.997339 0.0020332 0)
(0.997247 0.00213939 0)
(0.997167 0.00224345 0)
(0.99709 0.00234258 0)
(0.997024 0.00243714 0)
(0.996948 0.00252574 0)
(0.996855 0.00260831 0)
(0.99671 0.00268528 0)
(0.996476 0.00275653 0)
(0.99606 0.00282344 0)
(1.00002 -0.000234524 0)
(0.999756 3.84028e-05 0)
(0.999747 5.42137e-05 0)
(0.999703 5.88021e-05 0)
(0.999719 8.07471e-05 0)
(0.999645 9.20585e-05 0)
(0.999604 0.000109876 0)
(0.999504 0.000139716 0)
(0.999446 0.000174959 0)
(0.999354 0.000224798 0)
(0.999276 0.00026661 0)
(0.999184 0.000306521 0)
(0.999114 0.000361417 0)
(0.999007 0.000405132 0)
(0.998921 0.000464539 0)
(0.998811 0.000526856 0)
(0.998731 0.000594132 0)
(0.998615 0.000678812 0)
(0.998541 0.000773332 0)
(0.998431 0.000879778 0)
(0.998355 0.000988428 0)
(0.998248 0.00109898 0)
(0.998169 0.0012135 0)
(0.998069 0.00133078 0)
(0.997993 0.00145229 0)
(0.997899 0.0015692 0)
(0.997815 0.00168173 0)
(0.997714 0.00178207 0)
(0.997625 0.00187535 0)
(0.997534 0.00195968 0)
(0.997461 0.00204423 0)
(0.997391 0.00213112 0)
(0.997333 0.00222432 0)
(0.997274 0.00231872 0)
(0.997217 0.00241202 0)
(0.997145 0.00250035 0)
(0.997052 0.00258291 0)
(0.996907 0.00265922 0)
(0.996673 0.00272959 0)
(0.996257 0.00279483 0)
(1.00002 -0.000188963 0)
(0.999791 2.14828e-06 0)
(0.999767 6.91217e-05 0)
(0.999719 7.32499e-05 0)
(0.999735 8.89969e-05 0)
(0.999663 0.000101504 0)
(0.999623 0.000121911 0)
(0.999526 0.000158989 0)
(0.999472 0.000194671 0)
(0.999381 0.000247815 0)
(0.999305 0.000292058 0)
(0.999215 0.000336666 0)
(0.999148 0.000393934 0)
(0.999044 0.000444561 0)
(0.998963 0.000508872 0)
(0.998858 0.000579013 0)
(0.998787 0.00065815 0)
(0.998683 0.000754639 0)
(0.998617 0.000854184 0)
(0.998514 0.00095705 0)
(0.998445 0.0010589 0)
(0.998348 0.00116152 0)
(0.998279 0.00126622 0)
(0.998189 0.00137036 0)
(0.998115 0.00147649 0)
(0.998018 0.00158019 0)
(0.997931 0.00168681 0)
(0.997834 0.00179313 0)
(0.997755 0.00190189 0)
(0.997677 0.0020053 0)
(0.997618 0.00210514 0)
(0.997561 0.00219899 0)
(0.997515 0.00229016 0)
(0.997464 0.00237737 0)
(0.997413 0.0024614 0)
(0.997343 0.00254085 0)
(0.99725 0.00261547 0)
(0.997105 0.00268502 0)
(0.99687 0.00274937 0)
(0.996454 0.00280921 0)
(1.00002 -0.000149029 0)
(0.999823 -2.32644e-05 0)
(0.999791 7.54316e-05 0)
(0.999738 8.77386e-05 0)
(0.999751 0.000103334 0)
(0.999683 0.000117203 0)
(0.999643 0.000139586 0)
(0.99955 0.000179262 0)
(0.9995 0.000216207 0)
(0.99941 0.000270139 0)
(0.999336 0.000318928 0)
(0.999249 0.000367524 0)
(0.999187 0.000429829 0)
(0.999085 0.00048844 0)
(0.999012 0.000559852 0)
(0.998914 0.000639755 0)
(0.998854 0.000728366 0)
(0.998757 0.000825581 0)
(0.998695 0.000922093 0)
(0.998598 0.00102193 0)
(0.998532 0.00112651 0)
(0.99844 0.00123367 0)
(0.998374 0.00134368 0)
(0.998291 0.00144761 0)
(0.998229 0.00154844 0)
(0.998154 0.00164304 0)
(0.998092 0.00174002 0)
(0.998015 0.001836 0)
(0.997943 0.00193445 0)
(0.997862 0.00202989 0)
(0.997796 0.0021237 0)
(0.997735 0.00221267 0)
(0.99769 0.00229818 0)
(0.997643 0.00237909 0)
(0.997596 0.00245604 0)
(0.997531 0.0025287 0)
(0.997441 0.00259693 0)
(0.997298 0.00266101 0)
(0.997065 0.00272047 0)
(0.996648 0.00277611 0)
(1.00002 -0.000111815 0)
(0.999855 -4.51786e-05 0)
(0.999819 7.97603e-05 0)
(0.999757 0.000102564 0)
(0.999768 0.000119093 0)
(0.999703 0.000132697 0)
(0.999665 0.000156173 0)
(0.999575 0.000198794 0)
(0.999528 0.000237079 0)
(0.999441 0.00029325 0)
(0.99937 0.000345557 0)
(0.999287 0.000397761 0)
(0.999231 0.000465086 0)
(0.999133 0.000535972 0)
(0.999069 0.000618348 0)
(0.998978 0.000705727 0)
(0.998924 0.000795361 0)
(0.998833 0.000886714 0)
(0.998778 0.000980157 0)
(0.998693 0.0010754 0)
(0.998641 0.00117671 0)
(0.998563 0.00127845 0)
(0.998505 0.00138576 0)
(0.998422 0.00149023 0)
(0.998353 0.00159697 0)
(0.998269 0.0016974 0)
(0.998199 0.0017954 0)
(0.998124 0.00188433 0)
(0.998064 0.00196983 0)
(0.998004 0.00205198 0)
(0.997958 0.00213506 0)
(0.997911 0.00221691 0)
(0.997875 0.00229742 0)
(0.997833 0.00237446 0)
(0.997789 0.00244757 0)
(0.997725 0.00251631 0)
(0.997637 0.00258036 0)
(0.997495 0.00264035 0)
(0.997263 0.00269581 0)
(0.996847 0.00274775 0)
(1.00002 -8.15505e-05 0)
(0.999885 -4.6353e-05 0)
(0.999852 7.14781e-05 0)
(0.999779 0.00011077 0)
(0.999785 0.000135529 0)
(0.999723 0.000150799 0)
(0.999687 0.000175638 0)
(0.999602 0.000218381 0)
(0.99956 0.000257796 0)
(0.999476 0.000316985 0)
(0.999408 0.000377636 0)
(0.999328 0.000440224 0)
(0.999282 0.000514288 0)
(0.99919 0.000593189 0)
(0.999134 0.000678328 0)
(0.999046 0.000763781 0)
(0.998996 0.000850844 0)
(0.998911 0.00094037 0)
(0.998861 0.00103396 0)
(0.998782 0.00112773 0)
(0.998732 0.00122548 0)
(0.99866 0.00132098 0)
(0.998611 0.00142146 0)
(0.998546 0.00152136 0)
(0.998497 0.00162725 0)
(0.998433 0.00172967 0)
(0.998375 0.00183044 0)
(0.998301 0.00192277 0)
(0.998237 0.00201058 0)
(0.998173 0.00209212 0)
(0.998128 0.0021713 0)
(0.998087 0.00224722 0)
(0.998057 0.00232108 0)
(0.99802 0.00239167 0)
(0.99798 0.00245871 0)
(0.997919 0.00252184 0)
(0.997832 0.00258065 0)
(0.997691 0.00263571 0)
(0.997459 0.00268654 0)
(0.997044 0.00273413 0)
(1.00002 -5.87335e-05 0)
(0.999908 -2.95556e-05 0)
(0.999881 5.50113e-05 0)
(0.999802 0.000111727 0)
(0.999803 0.000151862 0)
(0.999742 0.000172094 0)
(0.999707 0.000198665 0)
(0.999625 0.000245128 0)
(0.999589 0.000285125 0)
(0.999511 0.000347843 0)
(0.99945 0.00041368 0)
(0.999374 0.000484962 0)
(0.999335 0.000560438 0)
(0.999247 0.000640778 0)
(0.999195 0.000723043 0)
(0.999112 0.000806417 0)
(0.999069 0.000895905 0)
(0.998993 0.000987757 0)
(0.998951 0.00108524 0)
(0.998882 0.00118117 0)
(0.998843 0.0012826 0)
(0.998785 0.00138049 0)
(0.998746 0.00148258 0)
(0.998688 0.00157907 0)
(0.998638 0.00167627 0)
(0.998568 0.00176604 0)
(0.998504 0.00185354 0)
(0.998432 0.00193418 0)
(0.998376 0.00201331 0)
(0.998324 0.00208894 0)
(0.998291 0.00216369 0)
(0.998259 0.00223566 0)
(0.998235 0.00230519 0)
(0.998203 0.00237125 0)
(0.998166 0.00243346 0)
(0.998107 0.00249195 0)
(0.998022 0.00254616 0)
(0.997881 0.00259701 0)
(0.99765 0.00264378 0)
(0.997235 0.00268771 0)
(1.00002 -3.87735e-05 0)
(0.999924 -1.59983e-05 0)
(0.999908 4.8267e-05 0)
(0.999828 0.000110915 0)
(0.999819 0.000165519 0)
(0.999759 0.000193319 0)
(0.999726 0.00022533 0)
(0.99965 0.000276212 0)
(0.999618 0.000320619 0)
(0.999547 0.000383837 0)
(0.999492 0.000449953 0)
(0.999419 0.000521096 0)
(0.999387 0.000595178 0)
(0.999304 0.000678417 0)
(0.999259 0.000764973 0)
(0.999183 0.00085167 0)
(0.999148 0.000944681 0)
(0.99908 0.00103819 0)
(0.999044 0.00113751 0)
(0.998983 0.00123269 0)
(0.998947 0.00133245 0)
(0.998893 0.00142579 0)
(0.998857 0.00152147 0)
(0.998807 0.00160914 0)
(0.998767 0.00169613 0)
(0.998712 0.0017756 0)
(0.998659 0.00185517 0)
(0.998594 0.00193134 0)
(0.998541 0.00200842 0)
(0.998492 0.00208323 0)
(0.998463 0.00215684 0)
(0.998435 0.00222714 0)
(0.998415 0.00229402 0)
(0.998386 0.00235695 0)
(0.998352 0.00241547 0)
(0.998294 0.00247029 0)
(0.99821 0.00252072 0)
(0.998069 0.0025681 0)
(0.997839 0.00261146 0)
(0.997425 0.00265233 0)
(1.00002 -2.35673e-05 0)
(0.999937 -2.09835e-06 0)
(0.999931 5.67082e-05 0)
(0.999852 0.000105932 0)
(0.999839 0.000171953 0)
(0.999777 0.000211223 0)
(0.999746 0.000252353 0)
(0.999673 0.000307533 0)
(0.999646 0.000355366 0)
(0.999581 0.000418768 0)
(0.999533 0.000483864 0)
(0.999464 0.000558281 0)
(0.999442 0.000633264 0)
(0.999366 0.000719147 0)
(0.999327 0.000809429 0)
(0.999258 0.000897607 0)
(0.99923 0.000991811 0)
(0.999171 0.0010841 0)
(0.999142 0.00118355 0)
(0.99909 0.00127688 0)
(0.999062 0.00137581 0)
(0.999018 0.00146727 0)
(0.998987 0.00156115 0)
(0.998937 0.00164558 0)
(0.998892 0.00172725 0)
(0.998831 0.0017986 0)
(0.99878 0.00186746 0)
(0.998726 0.00193381 0)
(0.99869 0.00200311 0)
(0.998656 0.002073 0)
(0.998637 0.00214265 0)
(0.998615 0.00220976 0)
(0.998599 0.00227284 0)
(0.99857 0.0023321 0)
(0.998536 0.00238645 0)
(0.998478 0.00243748 0)
(0.998395 0.00248392 0)
(0.998254 0.00252779 0)
(0.998025 0.00256758 0)
(0.99761 0.00260534 0)
(1.00002 -1.13953e-05 0)
(0.999947 1.26664e-05 0)
(0.999949 6.44517e-05 0)
(0.999874 0.000107498 0)
(0.99986 0.000175836 0)
(0.999797 0.000225724 0)
(0.999766 0.000276932 0)
(0.999698 0.000337201 0)
(0.999675 0.000389845 0)
(0.999615 0.000455074 0)
(0.999575 0.000520512 0)
(0.999511 0.000596964 0)
(0.999498 0.000672091 0)
(0.999431 0.000757746 0)
(0.999398 0.00085019 0)
(0.999335 0.000938976 0)
(0.999314 0.00103382 0)
(0.999264 0.00112436 0)
(0.999242 0.00122304 0)
(0.999196 0.00131326 0)
(0.999173 0.00140784 0)
(0.999132 0.00149196 0)
(0.999103 0.00157668 0)
(0.999055 0.00165114 0)
(0.999013 0.00172443 0)
(0.998957 0.0017922 0)
(0.998914 0.00186147 0)
(0.998871 0.00192969 0)
(0.998847 0.00199884 0)
(0.998823 0.00206657 0)
(0.998811 0.002132 0)
(0.998794 0.0021944 0)
(0.998779 0.00225236 0)
(0.998751 0.00230689 0)
(0.998717 0.00235661 0)
(0.998659 0.00240346 0)
(0.998575 0.00244589 0)
(0.998435 0.00248614 0)
(0.998205 0.00252248 0)
(0.997791 0.00255712 0)
(1.00002 -2.38499e-06 0)
(0.999954 2.77724e-05 0)
(0.999964 7.42183e-05 0)
(0.999892 0.000114807 0)
(0.999881 0.000180792 0)
(0.999819 0.000234738 0)
(0.999789 0.000296768 0)
(0.999723 0.000365983 0)
(0.999704 0.000424432 0)
(0.999649 0.000494164 0)
(0.999618 0.000559965 0)
(0.999558 0.000638443 0)
(0.999554 0.00071204 0)
(0.999497 0.000794656 0)
(0.999472 0.000886238 0)
(0.999415 0.00097466 0)
(0.999401 0.00106925 0)
(0.99936 0.00115761 0)
(0.999344 0.00125418 0)
(0.999305 0.00134137 0)
(0.999285 0.00143165 0)
(0.999246 0.00151066 0)
(0.999218 0.00158858 0)
(0.99917 0.00165675 0)
(0.999131 0.0017243 0)
(0.999084 0.00178902 0)
(0.999053 0.00185584 0)
(0.999022 0.00192243 0)
(0.999007 0.00198848 0)
(0.99899 0.00205257 0)
(0.998983 0.00211295 0)
(0.998967 0.00217033 0)
(0.998953 0.00222287 0)
(0.998926 0.00227261 0)
(0.998891 0.00231761 0)
(0.998833 0.00236041 0)
(0.998749 0.00239895 0)
(0.998609 0.00243583 0)
(0.99838 0.0024689 0)
(0.997966 0.00250063 0)
(1.00002 4.67362e-06 0)
(0.999959 4.20166e-05 0)
(0.999974 8.55023e-05 0)
(0.999908 0.00012671 0)
(0.999898 0.00019113 0)
(0.999843 0.000242879 0)
(0.999814 0.000309185 0)
(0.999753 0.000382115 0)
(0.999735 0.000449262 0)
(0.999684 0.000526414 0)
(0.999661 0.000598177 0)
(0.999606 0.000681544 0)
(0.999608 0.000755561 0)
(0.999562 0.000833859 0)
(0.999546 0.000921469 0)
(0.999497 0.00100727 0)
(0.999489 0.00109984 0)
(0.999456 0.00118509 0)
(0.999447 0.00127835 0)
(0.999412 0.00136212 0)
(0.999393 0.00144744 0)
(0.999354 0.00152059 0)
(0.999324 0.00159172 0)
(0.999279 0.00165557 0)
(0.999248 0.00172063 0)
(0.999212 0.00178425 0)
(0.999193 0.00184896 0)
(0.999172 0.0019125 0)
(0.999165 0.00197408 0)
(0.999153 0.0020332 0)
(0.999148 0.0020883 0)
(0.999133 0.00214055 0)
(0.99912 0.00218828 0)
(0.999093 0.00223355 0)
(0.999059 0.00227455 0)
(0.999001 0.00231361 0)
(0.998917 0.00234884 0)
(0.998778 0.00238254 0)
(0.998549 0.00241282 0)
(0.998134 0.00244182 0)
(1.00002 1.07446e-05 0)
(0.999964 5.26499e-05 0)
(0.999984 9.90716e-05 0)
(0.99992 0.000140442 0)
(0.999914 0.000207532 0)
(0.999862 0.000258477 0)
(0.999839 0.000326533 0)
(0.999783 0.000400389 0)
(0.999772 0.000470405 0)
(0.999726 0.000553042 0)
(0.999711 0.000626989 0)
(0.999658 0.000712761 0)
(0.999663 0.000788355 0)
(0.999624 0.000864945 0)
(0.999619 0.000948588 0)
(0.999578 0.00102995 0)
(0.999578 0.00111747 0)
(0.999553 0.00119616 0)
(0.99955 0.00128138 0)
(0.999519 0.00135823 0)
(0.9995 0.00143757 0)
(0.99946 0.00150805 0)
(0.999432 0.00157802 0)
(0.999394 0.00164253 0)
(0.999372 0.00170696 0)
(0.999346 0.00176908 0)
(0.999335 0.00183005 0)
(0.999321 0.00188898 0)
(0.999319 0.00194487 0)
(0.999309 0.00199839 0)
(0.999307 0.00204787 0)
(0.999293 0.00209511 0)
(0.999281 0.00213816 0)
(0.999254 0.00217927 0)
(0.99922 0.00221644 0)
(0.999163 0.00225199 0)
(0.99908 0.00228395 0)
(0.99894 0.00231456 0)
(0.998712 0.00234199 0)
(0.998297 0.00236827 0)
(1.00002 1.51801e-05 0)
(0.999967 6.41649e-05 0)
(0.999991 0.000111524 0)
(0.999933 0.000156877 0)
(0.999929 0.000225551 0)
(0.999884 0.00027766 0)
(0.999865 0.000349699 0)
(0.999815 0.000424086 0)
(0.999808 0.00049337 0)
(0.999767 0.000575348 0)
(0.999759 0.000647356 0)
(0.99971 0.000731468 0)
(0.999719 0.000808678 0)
(0.999688 0.000886835 0)
(0.999691 0.000970315 0)
(0.999657 0.00105019 0)
(0.99966 0.00113633 0)
(0.999641 0.00121248 0)
(0.999643 0.00129385 0)
(0.999619 0.00136667 0)
(0.999607 0.00144229 0)
(0.999572 0.00151027 0)
(0.99955 0.00157814 0)
(0.999515 0.0016407 0)
(0.999498 0.00170252 0)
(0.999477 0.00176136 0)
(0.999472 0.00181845 0)
(0.999462 0.00187298 0)
(0.999463 0.00192442 0)
(0.999456 0.00197331 0)
(0.999456 0.00201854 0)
(0.999444 0.0020615 0)
(0.999433 0.00210087 0)
(0.999407 0.00213833 0)
(0.999374 0.00217246 0)
(0.999317 0.00220493 0)
(0.999234 0.00223436 0)
(0.999095 0.00226233 0)
(0.998866 0.00228756 0)
(0.998451 0.0023115 0)
(1.00002 1.92012e-05 0)
(0.99997 7.17932e-05 0)
(0.999997 0.000124004 0)
(0.999943 0.00017142 0)
(0.999944 0.000244089 0)
(0.999904 0.000295287 0)
(0.999891 0.000368557 0)
(0.999844 0.000443627 0)
(0.999844 0.00051178 0)
(0.999807 0.000593475 0)
(0.999807 0.000664273 0)
(0.999765 0.000746765 0)
(0.999779 0.000821542 0)
(0.999756 0.000896072 0)
(0.999767 0.000974477 0)
(0.999743 0.00104747 0)
(0.999752 0.00112667 0)
(0.999739 0.00119623 0)
(0.999746 0.00127063 0)
(0.999726 0.00133697 0)
(0.999715 0.00140572 0)
(0.999682 0.00146741 0)
(0.999662 0.0015289 0)
(0.999633 0.00158657 0)
(0.999623 0.00164396 0)
(0.999608 0.00169932 0)
(0.999608 0.00175287 0)
(0.999602 0.00180411 0)
(0.999606 0.00185196 0)
(0.999601 0.00189728 0)
(0.999602 0.0019388 0)
(0.999592 0.00197815 0)
(0.999582 0.00201404 0)
(0.999557 0.00204823 0)
(0.999525 0.00207937 0)
(0.999468 0.0021091 0)
(0.999386 0.0021361 0)
(0.999247 0.00216185 0)
(0.999018 0.00218518 0)
(0.998603 0.00220739 0)
(1.00002 2.26631e-05 0)
(0.999973 8.10167e-05 0)
(1 0.000135431 0)
(0.999956 0.000185977 0)
(0.999959 0.000260579 0)
(0.999925 0.000311191 0)
(0.999918 0.000384451 0)
(0.999876 0.000460829 0)
(0.999881 0.000529107 0)
(0.999849 0.00061179 0)
(0.999855 0.000683243 0)
(0.999817 0.000766642 0)
(0.999834 0.000843201 0)
(0.999816 0.000918392 0)
(0.999831 0.000998852 0)
(0.999812 0.00107261 0)
(0.999824 0.00115245 0)
(0.999815 0.00122122 0)
(0.999828 0.00129307 0)
(0.999814 0.00135482 0)
(0.999809 0.00141746 0)
(0.999782 0.00147356 0)
(0.999769 0.00153092 0)
(0.999747 0.00158534 0)
(0.999744 0.00163987 0)
(0.999736 0.00169188 0)
(0.999742 0.00174188 0)
(0.999739 0.00178902 0)
(0.999744 0.00183301 0)
(0.99974 0.00187425 0)
(0.999741 0.00191219 0)
(0.999731 0.00194771 0)
(0.999721 0.00198016 0)
(0.999697 0.00201056 0)
(0.999667 0.00203825 0)
(0.999611 0.00206416 0)
(0.99953 0.00208771 0)
(0.999392 0.00210973 0)
(0.999164 0.00212971 0)
(0.99875 0.00214837 0)
(1.00002 2.32281e-05 0)
(0.999975 8.76432e-05 0)
(1.00001 0.000147134 0)
(0.999965 0.000201788 0)
(0.999972 0.000277499 0)
(0.999943 0.000328362 0)
(0.999944 0.000397358 0)
(0.999906 0.000473814 0)
(0.999918 0.000537957 0)
(0.999891 0.000618165 0)
(0.999907 0.000683232 0)
(0.999878 0.000759845 0)
(0.9999 0.000828227 0)
(0.999893 0.000892265 0)
(0.999918 0.000959391 0)
(0.999909 0.00101898 0)
(0.999926 0.00108364 0)
(0.999919 0.00113883 0)
(0.99993 0.00119837 0)
(0.999913 0.00125263 0)
(0.999906 0.00131186 0)
(0.999882 0.00137002 0)
(0.999876 0.0014314 0)
(0.999862 0.00149053 0)
(0.999866 0.00154672 0)
(0.999862 0.00159759 0)
(0.99987 0.00164334 0)
(0.999869 0.00168537 0)
(0.999875 0.00172408 0)
(0.999872 0.00176139 0)
(0.999873 0.00179666 0)
(0.999862 0.00183133 0)
(0.999851 0.00186418 0)
(0.999825 0.00189629 0)