/*--------------------------------*- C++ -*----------------------------------*\
| =========                 |                                                 |
| \\      /  F ield         | OpenFOAM: The Open Source CFD Toolbox           |
|  \\    /   O peration     | Version:  2312                                  |
|   \\  /    A nd           | Website:  www.openfoam.com                      |
|    \\/     M anipulation  |                                                 |
\*---------------------------------------------------------------------------*/
FoamFile
{
    version     2.0;
    format      ascii;
    arch        "LSB;label=32;scalar=64";
    class       volScalarField;
    location    "0.25";
    object      p;
}
// * * * * * * * * * * * * * * * * * * * * * * * * * * * * * * * * * * * * * //

dimensions      [0 2 -2 0 0 0 0];

internalField   nonuniform List<scalar> 
5600
(
-8.31784e-09
0.00046034
0.000273597
0.000383774
0.000292802
0.00040081
0.00034977
0.000436044
0.000391787
0.000476762
0.000488453
0.000521549
0.000552772
0.000598723
0.000626454
0.000680526
0.000696747
0.000739782
0.000778618
0.000846581
0.000890498
0.000954974
0.00102439
0.00105401
0.00110773
0.0011948
0.00125978
0.00132464
0.00138661
0.00145823
0.0015178
0.00156614
0.00159936
0.00163027
0.00164906
0.00164459
0.00161405
0.00155273
0.00141873
0.00111113
2.8126e-06
0.00045732
0.00027582
0.000380935
0.000294908
0.000398411
0.000352116
0.000430053
0.00039591
0.000474286
0.000488439
0.000519277
0.000553665
0.000594458
0.000626718
0.000679738
0.000697119
0.00073858
0.000777336
0.000845437
0.000889647
0.000954124
0.00102346
0.00104822
0.00110464
0.00118833
0.00125608
0.00131836
0.00138244
0.00145257
0.00151241
0.00154928
0.00156197
0.00157313
0.00158846
0.00159226
0.00156818
0.001493
0.00132535
0.000966848
5.3564e-06
0.000455473
0.000276939
0.000380115
0.000295804
0.000396887
0.000353372
0.000428319
0.000397755
0.000472712
0.000488535
0.000518612
0.000552062
0.000595067
0.000626731
0.000678772
0.000696891
0.000737082
0.000777412
0.000844444
0.00088937
0.000952633
0.00102237
0.00104755
0.00110198
0.00118557
0.00125267
0.00131312
0.00137428
0.00143913
0.0014924
0.0015205
0.00152811
0.00154019
0.00156
0.00156729
0.00154049
0.00145414
0.0012678
0.00089302
9.64554e-06
0.000451164
0.000279801
0.000376605
0.0002985
0.000393054
0.000356426
0.00042143
0.000402301
0.000469106
0.000489175
0.000515674
0.000553706
0.000591176
0.000626982
0.000677303
0.000696394
0.000735747
0.000776961
0.000842418
0.000889908
0.000950014
0.00102149
0.0010421
0.00109742
0.0011805
0.00124599
0.00130396
0.00136141
0.00141632
0.00145433
0.00147827
0.00149401
0.00151452
0.0015381
0.00154474
0.00151235
0.00141519
0.0012159
0.000829124
1.35429e-05
0.0004472
0.000282089
0.000374376
0.000300572
0.000390096
0.000358611
0.000418587
0.000404893
0.000466427
0.000489841
0.000513363
0.000553078
0.000589884
0.000626427
0.000676025
0.000695496
0.000733542
0.000776145
0.000840385
0.000889345
0.000947068
0.00101867
0.00103994
0.00109108
0.00117343
0.00123528
0.00128674
0.00133624
0.0013832
0.00141779
0.00144362
0.00146703
0.00149426
0.00151969
0.00152445
0.00148719
0.00138317
0.00117471
0.000776928
1.89363e-05
0.000441081
0.000286254
0.000369743
0.000304709
0.000384685
0.000362119
0.00041156
0.000408979
0.000462617
0.000490385
0.00051054
0.000552692
0.0005897
0.000624882
0.000674366
0.000694511
0.000730737
0.000775084
0.000836978
0.000888226
0.000944114
0.0010129
0.00103548
0.00108119
0.00115988
0.00121715
0.00125904
0.00130085
0.00134682
0.0013839
0.00141399
0.00144254
0.0014739
0.00150112
0.00150537
0.00146731
0.00136278
0.00115224
0.000749284
2.42827e-05
0.000434686
0.000289907
0.000365943
0.000308234
0.000379997
0.000365187
0.00040689
0.000412079
0.000459595
0.000489976
0.000508979
0.000551091
0.000588738
0.000623245
0.000672309
0.00069282
0.00072678
0.000773246
0.000833687
0.000885653
0.000940006
0.00100499
0.00102778
0.00106644
0.00113864
0.00119143
0.00122394
0.00126189
0.00130976
0.00135156
0.00138494
0.00141693
0.00145254
0.0014832
0.0014906
0.00145706
0.00135984
0.00115794
0.000759517
3.1187e-05
0.000425946
0.000295743
0.000360143
0.000313751
0.000373181
0.000368707
0.000400691
0.00041464
0.00045739
0.00048811
0.000508119
0.000548793
0.000587478
0.00062178
0.000669037
0.00069084
0.000722502
0.000770563
0.000829564
0.000880858
0.000935146
0.000991003
0.00101283
0.00104577
0.00110841
0.00115633
0.0011854
0.00122097
0.00127033
0.00131493
0.00135114
0.00138722
0.00142878
0.00146768
0.00148566
0.00146319
0.00137701
0.00118586
0.000803972
3.83709e-05
0.000416434
0.000300971
0.000354751
0.00031874
0.000366975
0.000371888
0.00039515
0.000416206
0.000455887
0.000485954
0.000506749
0.000546394
0.000585853
0.000619867
0.000665401
0.000688085
0.00071731
0.0007663
0.000824705
0.000874664
0.000927525
0.000976545
0.000991425
0.00101826
0.00107062
0.00111733
0.00114694
0.00117918
0.00122397
0.00126582
0.00130214
0.00134185
0.00139617
0.00146067
0.00151732
0.00154163
0.00150176
0.00133699
0.000918821
4.71979e-05
0.000404361
0.000308369
0.000348156
0.000325066
0.000359332
0.000374394
0.000389375
0.000416481
0.000454322
0.000483906
0.000504636
0.000543687
0.000583999
0.000617859
0.000661004
0.000684325
0.000711259
0.000760705
0.000818429
0.000865044
0.000915144
0.000956164
0.000961828
0.000984385
0.00103261
0.0010783
0.00110764
0.00113423
0.0011704
0.00120181
0.00122209
0.00123896
0.00127166
0.0013281
0.00139209
0.00145137
0.00153134
0.00170891
0.00213153
5.66716e-05
0.000390977
0.000315215
0.000341836
0.00033072
0.000353183
0.000375213
0.000387864
0.00041507
0.000452567
0.000481644
0.000502171
0.00054054
0.000581975
0.000614943
0.000655844
0.000679617
0.000703822
0.000752439
0.00081007
0.00085221
0.000895823
0.00092931
0.000926876
0.000948427
0.00099448
0.00103732
0.00106648
0.00109008
0.00112267
0.00115394
0.00118316
0.00121935
0.00127737
0.00135481
0.00143939
0.00152813
0.00164427
0.00184318
0.00222698
6.77909e-05
0.000375025
0.000323243
0.000335904
0.000335862
0.000348356
0.000369182
0.000386885
0.00041285
0.000450883
0.000478677
0.000499393
0.000536873
0.000580339
0.00061176
0.000649356
0.000673829
0.000694918
0.000740889
0.000798335
0.000835291
0.000870649
0.000900014
0.000892495
0.000909765
0.000954501
0.000994952
0.00102427
0.00104815
0.00108833
0.00113924
0.00118975
0.00123601
0.00128742
0.00134927
0.00142176
0.00151143
0.00164315
0.00186964
0.00229004
7.98414e-05
0.000357718
0.000330514
0.000330665
0.000338428
0.000347272
0.000366521
0.000384835
0.000411266
0.000448479
0.000475204
0.000496161
0.000532641
0.000574671
0.000607541
0.000641183
0.000666197
0.000684497
0.000724739
0.000782226
0.000816121
0.000842163
0.000868001
0.000857417
0.000867612
0.000912823
0.000955973
0.000994449
0.00103438
0.00108989
0.00114537
0.00118912
0.00122503
0.00126703
0.0013243
0.00139897
0.00149837
0.00164504
0.0018864
0.00231232
9.34525e-05
0.000337766
0.000336933
0.000329453
0.00033717
0.000346818
0.000360481
0.000380932
0.000409854
0.000445472
0.000471214
0.000492279
0.00052768
0.000570695
0.000603879
0.000631684
0.000655051
0.000672639
0.000705496
0.000760946
0.000795103
0.000811937
0.000834237
0.000824597
0.000829597
0.000878907
0.000931854
0.000977332
0.00102049
0.00107479
0.0011284
0.00116898
0.00120119
0.00124003
0.00129738
0.0013758
0.0014811
0.0016323
0.00187411
0.00229628
0.000107962
0.000318889
0.000339689
0.000328555
0.000335472
0.000347152
0.000357954
0.000376604
0.000407217
0.000442234
0.000466674
0.00048763
0.000522024
0.000565073
0.000598722
0.000620783
0.000639826
0.000657891
0.000685233
0.000735147
0.000771529
0.000783492
0.000800605
0.000793677
0.000794593
0.000845881
0.000911192
0.00096444
0.00100568
0.00105315
0.00110359
0.0011439
0.00117575
0.00121255
0.00126828
0.0013471
0.00145401
0.00160574
0.00184623
0.00226637
0.00012355
0.000300499
0.000337722
0.000329266
0.000334048
0.000345707
0.000355834
0.000371986
0.000403112
0.000438266
0.000461384
0.000481971
0.000515446
0.000557879
0.000591974
0.000609723
0.00062167
0.000639792
0.000665339
0.00070809
0.000745402
0.00075596
0.000767341
0.000764279
0.000763848
0.000813689
0.000888347
0.000949307
0.00098909
0.00102761
0.00107212
0.00111219
0.00114561
0.00118187
0.00123501
0.00131187
0.0014186
0.00157111
0.00181131
0.00222953
0.000139724
0.000283798
0.000331353
0.00032993
0.000333449
0.000344146
0.000354046
0.000368122
0.000398141
0.000433087
0.000455256
0.000475202
0.000507787
0.000549133
0.000582534
0.00059672
0.000602809
0.0006178
0.000642586
0.00068039
0.00071753
0.000729066
0.000735028
0.000735415
0.000736987
0.000782709
0.000860626
0.000928582
0.000969492
0.00100026
0.00103709
0.00107566
0.00111122
0.00114806
0.00119855
0.00127218
0.00137734
0.00153012
0.00177096
0.00218929
0.000156214
0.000268915
0.000320781
0.000329533
0.000333936
0.000342379
0.000351318
0.000364766
0.000393057
0.000426553
0.000447691
0.000466968
0.000498669
0.000538799
0.000571847
0.000582179
0.000582517
0.000594292
0.000617375
0.000652194
0.000688931
0.00070278
0.00070397
0.000704892
0.00071082
0.00075309
0.000829296
0.000901111
0.000945171
0.000971556
0.00100039
0.00103488
0.00107115
0.00110955
0.00115899
0.0012297
0.00133229
0.00148422
0.00172512
0.00214339
0.000172318
0.000256935
0.000306903
0.000326549
0.000334533
0.000341374
0.000348246
0.000361119
0.000387867
0.00041921
0.000438726
0.00045701
0.000487885
0.000526556
0.00055949
0.000566093
0.000559845
0.000569232
0.000591041
0.000622036
0.000657833
0.000676208
0.000675525
0.000673556
0.000681931
0.000722334
0.000795669
0.000868963
0.000916395
0.000941214
0.000963305
0.000992335
0.00102753
0.00106721
0.00111638
0.00118463
0.00128437
0.00143504
0.00167627
0.00209536
0.000185959
0.000248563
0.000293686
0.000319546
0.000333467
0.000340899
0.000345564
0.000356819
0.000382139
0.000411334
0.000428288
0.000444729
0.000475246
0.000512155
0.000544882
0.000550589
0.000535767
0.000541251
0.000563714
0.000591163
0.000624861
0.000647985
0.000649086
0.000643102
0.000650314
0.000689302
0.000760417
0.000834014
0.000883697
0.00090817
0.00092511
0.000948107
0.000980291
0.00102024
0.00107009
0.00113761
0.00123553
0.00138474
0.00162551
0.00204482
0.00019732
0.000243852
0.000281094
0.000308402
0.000329735
0.000340329
0.000343549
0.000352347
0.000375634
0.000402658
0.000417112
0.000430496
0.000460071
0.000495693
0.000527461
0.00053459
0.000512592
0.000509844
0.000533649
0.000560665
0.000590861
0.000616281
0.00062212
0.00061498
0.000619006
0.000654475
0.000721913
0.000795056
0.000847047
0.000872719
0.000886322
0.00090359
0.000931554
0.000970637
0.00102131
0.00108903
0.00118575
0.00133326
0.00157297
0.00199215
0.00020618
0.000240586
0.000270559
0.000296492
0.000322352
0.000337788
0.000341738
0.000348148
0.000368323
0.000392986
0.000405189
0.000414294
0.000441859
0.000477568
0.000507339
0.00051657
0.000491661
0.000477222
0.00049914
0.00052893
0.000557575
0.000582746
0.000592933
0.000588342
0.00058956
0.000619089
0.000680578
0.00075219
0.000806598
0.000834566
0.000846524
0.000858864
0.000881857
0.000918559
0.000969262
0.00103764
0.00113424
0.00128087
0.00151965
0.00193849
0.000212677
0.00023816
0.000262504
0.00028494
0.000311268
0.000332042
0.000338908
0.000344164
0.000360924
0.000382345
0.000392223
0.000397117
0.000420952
0.000456847
0.000485038
0.0004953
0.000471718
0.000446525
0.00046109
0.000493861
0.000524558
0.000548998
0.000561299
0.000560505
0.000560926
0.000584627
0.0006385
0.000706217
0.000761751
0.000792601
0.000804921
0.000814056
0.000832401
0.00086574
0.000915476
0.000984376
0.00108156
0.00122804
0.00146621
0.00188455
0.000216908
0.000235762
0.000255532
0.000274298
0.000298712
0.000322651
0.000333636
0.000339499
0.000353522
0.000371253
0.00037828
0.000378965
0.000397264
0.000432836
0.000461803
0.000471499
0.000450274
0.000418517
0.000422025
0.000454262
0.000489882
0.000516517
0.000529464
0.000531257
0.000532543
0.000551389
0.000596388
0.000657628
0.000712741
0.000746821
0.000761364
0.000769264
0.000783887
0.000813399
0.000861013
0.000929593
0.00102734
0.00117426
0.00141243
0.00183058
0.000218951
0.000233114
0.000249033
0.000264851
0.000286377
0.000310384
0.000324765
0.00033245
0.000345673
0.00036047
0.0003638
0.000359777
0.000371895
0.000405638
0.000436539
0.00044594
0.000426792
0.000392343
0.000384322
0.000411598
0.000451571
0.000483447
0.000498453
0.000501786
0.000503602
0.000518427
0.000554945
0.000608201
0.000660706
0.000697064
0.000714859
0.000723571
0.000736095
0.000762103
0.000806843
0.000874162
0.000972097
0.00111977
0.00135856
0.001777
0.000218874
0.000229745
0.000242321
0.000255363
0.000274517
0.000297059
0.000312305
0.000321849
0.000336033
0.000349848
0.000349718
0.000340139
0.00034518
0.000374841
0.000407975
0.00042009
0.000402596
0.000366747
0.000348826
0.000368146
0.000409658
0.000448134
0.000468196
0.000473455
0.000474882
0.000485745
0.00051433
0.000558788
0.000606523
0.000643586
0.00066496
0.000676323
0.000688702
0.000712231
0.000753916
0.000819144
0.000916492
0.00106465
0.00130423
0.00172326
0.000216989
0.00022558
0.00023539
0.000245565
0.000262995
0.000283807
0.000297373
0.000306993
0.000323079
0.000338476
0.000336395
0.000321071
0.000317958
0.000341494
0.000375771
0.000392343
0.00037786
0.000342048
0.000316175
0.000325641
0.000364587
0.000408921
0.000437561
0.000447289
0.000448104
0.000453871
0.00047417
0.000509576
0.000551359
0.000587808
0.000612596
0.000627948
0.0006421
0.000664553
0.000703515
0.000766187
0.000862344
0.0010108
0.00125152
0.00167176
0.000212972
0.000219813
0.000227294
0.000234934
0.000251295
0.00027087
0.000281552
0.000288733
0.000305819
0.000324575
0.000323541
0.000303725
0.000292113
0.00030766
0.000339745
0.000361337
0.000353392
0.000319172
0.000285863
0.000283739
0.000315978
0.000363364
0.000401524
0.000418503
0.000420268
0.000421025
0.000432517
0.000458041
0.000492314
0.000526212
0.000553196
0.000572779
0.000590063
0.000612948
0.000649924
0.000709678
0.000803485
0.000950951
0.00119196
0.00161321
0.000207668
0.000213194
0.000218291
0.00022314
0.000238118
0.000257226
0.000265874
0.000269196
0.000283869
0.000305851
0.000309527
0.000288347
0.000268537
0.000274808
0.000302868
0.000328959
0.000331171
0.000304489
0.000268435
0.000254469
0.000275201
0.000320101
0.000366422
0.000393656
0.000400363
0.000398685
0.000402046
0.000417019
0.000442134
0.000471287
0.000498517
0.00052154
0.000542592
0.000567496
0.000604089
0.00066174
0.00075294
0.000898323
0.00113803
0.00155842
0.000199561
0.0002038
0.000208786
0.000212282
0.000223679
0.000240952
0.000249963
0.000250698
0.000260091
0.000281595
0.000292118
0.000274527
0.000247096
0.000240064
0.000257916
0.000281929
0.000291024
0.00027412
0.000240046
0.000215437
0.000220921
0.000256983
0.000306101
0.000343712
0.000359748
0.000360803
0.00035972
0.000365831
0.000381856
0.000405209
0.000431425
0.000457585
0.000484151
0.000514963
0.000556488
0.000617621
0.000711151
0.000858436
0.00110035
0.00152364
0.000192235
0.000191014
0.000195676
0.000200462
0.000207848
0.000221947
0.000232094
0.000232653
0.000236246
0.000253786
0.00027156
0.000266268
0.000241919
0.000228317
0.000240231
0.000265339
0.000282847
0.000279011
0.000254974
0.000227153
0.00021626
0.000231844
0.000267019
0.000305166
0.00033012
0.000337793
0.000335095
0.000331608
0.000333559
0.00034184
0.000354174
0.000368188
0.000383919
0.000404437
0.000435687
0.000486469
0.000570042
0.00070859
0.000943995
0.00136395
0.000177897
0.00017988
0.000184738
0.000186912
0.00018962
0.000200817
0.000212129
0.00021345
0.00021189
0.000220486
0.000234904
0.00023447
0.000211481
0.000186264
0.000180189
0.000191852
0.000205621
0.000208291
0.000195987
0.000176409
0.000165361
0.000174808
0.00020449
0.000242057
0.000272589
0.000289161
0.000294974
0.000298082
0.000305371
0.000319805
0.000341034
0.000367533
0.000398691
0.000436049
0.000483879
0.000549847
0.000646742
0.000796829
0.00104224
0.00147078
0.000159798
0.000167804
0.000173117
0.000172128
0.000170946
0.000179232
0.000191062
0.000195302
0.000195244
0.000202606
0.000219215
0.000231828
0.000228913
0.000217584
0.000216635
0.000233009
0.000257741
0.000277143
0.000281471
0.000271467
0.000257443
0.00024865
0.000248774
0.000254882
0.000259879
0.000258245
0.000248466
0.000233067
0.000215114
0.00019633
0.000176355
0.000153365
0.000124536
8.63587e-05
3.42151e-05
-3.87499e-05
-0.000144198
-0.000303604
-0.000559094
-0.000999221
0.00014777
0.000148399
0.000150201
0.000151679
0.000151383
0.000153763
0.000160051
0.000163822
0.000161865
0.000159267
0.000160925
0.000163132
0.000156819
0.000139927
0.000122033
0.000114114
0.000117679
0.00012596
0.000132875
0.000135661
0.000136223
0.000141511
0.00015522
0.000175301
0.000197528
0.000217714
0.000234306
0.00024811
0.000261935
0.000278583
0.000299778
0.000326249
0.000358669
0.000398802
0.000450405
0.00052039
0.000620872
0.000773764
0.00102118
0.00145112
0.000129066
0.000130101
0.000131906
0.000135311
0.00013653
0.000137102
0.000142449
0.000151085
0.000158001
0.000163887
0.000173601
0.000187718
0.000200049
0.000205161
0.000205536
0.00020839
0.000217088
0.000227424
0.000232746
0.000229838
0.000219553
0.000205966
0.000192823
0.000181009
0.000169213
0.000155217
0.000137737
0.000116537
9.21213e-05
6.49995e-05
3.52086e-05
2.06023e-06
-3.6031e-05
-8.17297e-05
-0.000139297
-0.000215648
-0.000322649
-0.000481859
-0.000735135
-0.00117035
0.000106155
0.00010563
0.00010495
0.000103674
0.00010074
9.89814e-05
9.98125e-05
9.98847e-05
9.68347e-05
9.26162e-05
8.97171e-05
8.75535e-05
8.36175e-05
7.65622e-05
6.81413e-05
6.22671e-05
6.18439e-05
6.79217e-05
7.95255e-05
9.3268e-05
0.000107053
0.000120829
0.000134826
0.000149697
0.000166137
0.000183901
0.000202239
0.000220669
0.000239501
0.000259651
0.000282261
0.000308558
0.000340154
0.000379513
0.000430659
0.00050036
0.000600451
0.000752585
0.000998775
0.00142708
8.735e-05
8.78639e-05
8.73403e-05
8.69958e-05
8.96439e-05
9.28362e-05
9.43047e-05
9.79311e-05
0.000106999
0.00011882
0.000129689
0.000139905
0.000151335
0.000163094
0.000171956
0.000176313
0.00017842
0.000180243
0.000180695
0.000178669
0.000172251
0.000160752
0.000146801
0.000131878
0.000115847
9.84254e-05
7.9292e-05
5.82067e-05
3.48145e-05
8.97196e-06
-1.95595e-05
-5.13715e-05
-8.79667e-05
-0.000131975
-0.000187657
-0.000261888
-0.000366485
-0.000523001
-0.000773344
-0.00120548
5.3579e-05
5.15116e-05
4.75872e-05
4.35153e-05
3.81596e-05
3.12178e-05
2.55594e-05
2.22447e-05
1.92163e-05
1.55385e-05
1.2682e-05
1.1811e-05
1.22481e-05
1.28185e-05
1.40726e-05
1.80222e-05
2.55947e-05
3.70607e-05
5.21935e-05
6.902e-05
8.72803e-05
0.000107186
0.000127128
0.000146803
0.000166622
0.000186612
0.000206553
0.000226597
0.000247384
0.000269511
0.000293612
0.000320571
0.000352051
0.000390765
0.000441013
0.00050971
0.000608718
0.000759639
0.00100443
0.00143111
3.74671e-05
3.89567e-05
3.76481e-05
3.48459e-05
3.25696e-05
2.97859e-05
2.74302e-05
2.8948e-05
3.59893e-05
4.57487e-05
5.59973e-05
6.73343e-05
8.11143e-05
9.64732e-05
0.000110894
0.000122636
0.00013222
0.000139575
0.000144565
0.000147373
0.000146698
0.000143012
0.000138005
0.000131591
0.000123605
0.000114126
0.000103343
9.08526e-05
7.60561e-05
5.85252e-05
3.77506e-05
1.28528e-05
-1.77714e-05
-5.664e-05
-0.000107832
-0.00017812
-0.000279354
-0.000433182
-0.00068162
-0.00111273
-8.06651e-06
-9.71863e-06
-1.65758e-05
-2.57774e-05
-3.71154e-05
-5.20126e-05
-6.58548e-05
-7.42956e-05
-7.87373e-05
-8.25458e-05
-8.46912e-05
-8.23868e-05
-7.5144e-05
-6.49758e-05
-5.25941e-05
-3.68459e-05
-1.72481e-05
6.16579e-06
3.24823e-05
5.97679e-05
8.86765e-05
0.00011976
0.000151574
0.000183834
0.000215813
0.000246974
0.000276917
0.000305939
0.000334757
0.000363956
0.000394129
0.000426172
0.000461764
0.000503607
0.000555949
0.000625664
0.000724604
0.000874368
0.00111682
0.00153977
0.00082896
0.000992211
0.00154738
0.00210003
0.00249018
0.00267039
0.00265772
0.00251937
0.00233116
0.00214966
0.00200794
0.00191982
0.00188029
0.00187221
0.00187579
0.00187581
0.00186509
0.00184317
0.00181301
0.00177761
0.00173964
0.00170193
0.00166706
0.00163329
0.00159995
0.00156531
0.00153019
0.00149571
0.00146085
0.00143201
0.00140111
0.00137386
0.00134137
0.00130932
0.00127949
0.00125381
0.00124065
0.00122208
0.00122283
0.00122676
0.00122061
0.00121181
0.00120815
0.00117417
0.00106819
0.000864338
0.000554437
0.000280674
2.43118e-05
-0.000198194
-0.000211638
-0.000196647
-0.000518366
-0.00129332
-0.00200981
-0.00228676
-0.00265893
-0.0034167
-0.00414653
-0.00470844
-0.00513342
-0.00525775
-0.00503263
-0.00454195
-0.00392118
-0.00328268
-0.00268701
-0.00221677
-0.00185645
-0.00156122
-0.00138231
-0.00124158
-0.00107073
-0.000911966
-0.000708727
-0.000410917
-0.00012425
0.000100169
0.000345177
0.000647302
0.000970504
0.00128737
0.00159811
0.00190455
0.00220749
0.00251312
0.00282121
0.00314096
0.00346761
0.00381189
0.0041672
0.00454086
0.00493156
0.00533768
0.00576824
0.00621331
0.00668971
0.00718116
0.00769718
0.0082801
0.00064949
0.000779303
0.00132359
0.00189389
0.00231475
0.00253635
0.00256761
0.00246576
0.00230182
0.00213192
0.00198989
0.00189141
0.00183903
0.00182255
0.00182579
0.00183242
0.00183093
0.0018171
0.0017909
0.00175568
0.00171543
0.00167433
0.00163837
0.00160708
0.00157708
0.00154392
0.00150836
0.00147366
0.00143949
0.00141196
0.00138184
0.00135565
0.0013236
0.00129262
0.00126385
0.00123902
0.00122573
0.0012055
0.00120646
0.00120821
0.0012002
0.0011889
0.0011824
0.00114742
0.00103943
0.000839344
0.000534946
0.000268843
1.91673e-05
-0.000204601
-0.00022702
-0.00021129
-0.000532051
-0.00130329
-0.00201816
-0.00228097
-0.0026468
-0.0033971
-0.00411225
-0.0046657
-0.00509482
-0.00522713
-0.00500787
-0.00452051
-0.00390452
-0.00327162
-0.00267869
-0.00221053
-0.00185201
-0.00155664
-0.00137795
-0.00123823
-0.00106761
-0.000909311
-0.000706932
-0.000409759
-0.000123492
0.000100654
0.000345458
0.000647304
0.00097006
0.00128674
0.00159758
0.00190429
0.00220744
0.00251318
0.00282134
0.00314112
0.00346775
0.00381197
0.00416725
0.00454086
0.00493157
0.00533768
0.00576824
0.0062133
0.00668972
0.00718116
0.00769718
0.0082804
0.000571778
0.000703833
0.00125561
0.00183663
0.00226977
0.00250488
0.00254948
0.00245843
0.00230069
0.0021318
0.00198581
0.0018789
0.00181657
0.00179224
0.00179239
0.00180082
0.00180408
0.00179554
0.00177337
0.00173993
0.00169965
0.00165633
0.00161756
0.00158602
0.00155784
0.00152785
0.00149322
0.00145835
0.00142416
0.00139658
0.00136773
0.00134142
0.00130979
0.00127955
0.00125171
0.00122396
0.00120773
0.00118709
0.00118289
0.00117449
0.00115938
0.00114169
0.00112093
0.00107197
0.00096053
0.00077695
0.000503474
0.00025295
2.19866e-05
-0.000194735
-0.000258305
-0.00029119
-0.000595275
-0.00130459
-0.00198115
-0.00226232
-0.00262861
-0.00334748
-0.00403008
-0.0045594
-0.00496827
-0.00510276
-0.00491013
-0.00445786
-0.00387011
-0.00325758
-0.00267834
-0.00221598
-0.00185866
-0.00156286
-0.00138142
-0.00123869
-0.00106634
-0.000907041
-0.00070444
-0.000407885
-0.000122101
0.000101973
0.000346695
0.000648208
0.000970813
0.00128722
0.00159776
0.00190419
0.00220718
0.00251291
0.00282105
0.00314082
0.0034675
0.00381182
0.00416717
0.00454085
0.00493156
0.00533768
0.00576824
0.00621329
0.00668971
0.00718111
0.00769712
0.0082807
0.00049982
0.000626056
0.00117298
0.00175099
0.00218234
0.00241722
0.00246365
0.00237642
0.00222403
0.00206127
0.00192143
0.00181893
0.00175754
0.00173098
0.0017278
0.00173468
0.00173913
0.00173451
0.00171779
0.00168995
0.00165407
0.00161261
0.00157231
0.00153759
0.00150862
0.00148196
0.0014521
0.00141994
0.00138556
0.0013585
0.00133117
0.00130657
0.00127713
0.00124757
0.00122103
0.00119279
0.00117668
0.00115373
0.00114436
0.00113349
0.00111429
0.00109026
0.00105926
0.00100681
0.000898936
0.000728941
0.000477967
0.000239962
2.18792e-05
-0.000192927
-0.000299543
-0.000364062
-0.000637968
-0.00129488
-0.00195161
-0.00224563
-0.0026055
-0.00328887
-0.00393279
-0.00442951
-0.00482623
-0.00497328
-0.00481017
-0.00438335
-0.00381981
-0.00322901
-0.00266443
-0.00220824
-0.00185456
-0.00155914
-0.00137452
-0.00123022
-0.0010575
-0.000896881
-0.000694461
-0.000401013
-0.000117677
0.000106438
0.000351314
0.000651494
0.000972058
0.00128702
0.00159699
0.00190341
0.00220668
0.00251264
0.00282105
0.00314101
0.00346773
0.00381197
0.00416725
0.00454085
0.00493156
0.00533767
0.00576823
0.00621327
0.00668969
0.00718103
0.00769705
0.00828111
0.000437936
0.000558846
0.00110289
0.00168091
0.00211483
0.00235403
0.00240555
0.00232344
0.00217622
0.00201851
0.00188326
0.00178431
0.00172466
0.00169792
0.00169312
0.0016987
0.00170371
0.00170164
0.00168922
0.00166668
0.00163598
0.00159874
0.00155957
0.00152296
0.00149165
0.00146611
0.00144062
0.0014126
0.00137958
0.00135037
0.0013227
0.0012978
0.00126876
0.00123946
0.0012122
0.00118172
0.00116103
0.00113572
0.00112167
0.00110403
0.00107725
0.00104725
0.00100779
0.000946573
0.000837549
0.000676467
0.000447233
0.000222223
1.16844e-05
-0.000198525
-0.000332526
-0.00042579
-0.000684602
-0.0012949
-0.00192213
-0.00222038
-0.00257409
-0.00322221
-0.00382976
-0.0042997
-0.00467664
-0.00482037
-0.00467849
-0.00428873
-0.00376006
-0.00319652
-0.00265048
-0.00220377
-0.00185455
-0.00156073
-0.00137277
-0.00122544
-0.00105135
-0.000888576
-0.000685727
-0.000394809
-0.00011325
0.000111136
0.000356095
0.000655138
0.000974124
0.00128794
0.00159718
0.0019032
0.00220614
0.00251206
0.00282042
0.0031404
0.00346724
0.00381169
0.00416711
0.00454083
0.00493156
0.00533767
0.00576822
0.00621325
0.00668966
0.00718094
0.00769696
0.00828151
0.000403699
0.000520226
0.00106012
0.00163343
0.00206234
0.00229694
0.00234509
0.00226119
0.00211364
0.0019568
0.00182287
0.00172523
0.00166658
0.00164192
0.00163937
0.00164602
0.00165018
0.00164556
0.00163064
0.00160669
0.00157701
0.00154224
0.00150455
0.0014672
0.0014333
0.00140626
0.0013821
0.00135832
0.00132891
0.00129959
0.00127156
0.00124666
0.00122
0.00119205
0.00116702
0.00113613
0.00111416
0.00108939
0.00107098
0.00105097
0.00102108
0.000986775
0.000940439
0.000875122
0.000768865
0.000617727
0.000409628
0.000197061
-5.54284e-06
-0.000206028
-0.000361142
-0.000489278
-0.0007364
-0.00129232
-0.00188711
-0.00219283
-0.00254
-0.00315367
-0.00372571
-0.00416379
-0.00451912
-0.00466729
-0.00455568
-0.00420047
-0.00370008
-0.00316221
-0.00263535
-0.00219698
-0.00185141
-0.00155808
-0.00136604
-0.0012158
-0.00104101
-0.000876305
-0.000673019
-0.000385532
-0.000106889
0.000117589
0.000362789
0.00066017
0.000976712
0.00128864
0.00159682
0.0019024
0.0022055
0.0025116
0.00282033
0.0031406
0.00346754
0.00381188
0.00416722
0.00454082
0.00493155
0.00533766
0.00576821
0.00621323
0.00668963
0.00718084
0.00769687
0.00828194
0.000411238
0.000527076
0.00106163
0.00162085
0.00202934
0.00224004
0.00226508
0.00216346
0.00200599
0.00184681
0.0017167
0.00162835
0.00158174
0.00156785
0.00157274
0.00158447
0.00159331
0.00159228
0.00157994
0.00155854
0.00153277
0.00150415
0.00147334
0.00144274
0.00141356
0.00138862
0.00136687
0.00134604
0.00132128
0.00129355
0.00126441
0.00123906
0.00121251
0.0011842
0.00115898
0.00112751
0.00110077
0.00107209
0.00104853
0.0010239
0.000986758
0.000945248
0.00089303
0.000820162
0.000714964
0.000570097
0.000377522
0.000177464
-2.09326e-05
-0.000215127
-0.000389297
-0.000547624
-0.000779399
-0.00128415
-0.00185173
-0.00216327
-0.00250065
-0.00307815
-0.0036126
-0.00402296
-0.00436195
-0.00451073
-0.00441758
-0.0040961
-0.00363004
-0.0031206
-0.00261414
-0.0021859
-0.00184543
-0.00155448
-0.00135966
-0.00120736
-0.00103194
-0.000865228
-0.000661747
-0.00037748
-0.00010115
0.00012354
0.000368741
0.000664628
0.000979193
0.0012896
0.00159707
0.00190236
0.00220508
0.00251105
0.00281962
0.00313983
0.00346691
0.00381153
0.00416705
0.00454081
0.00493154
0.00533766
0.00576819
0.00621321
0.00668959
0.00718075
0.00769678
0.00828239
0.000471426
0.000600856
0.00114386
0.0016933
0.00207512
0.00224614
0.00222707
0.00208898
0.00190969
0.00174411
0.00161933
0.00154308
0.00150996
0.00150672
0.00151797
0.00153113
0.00153803
0.00153461
0.00152123
0.00149918
0.0014716
0.00144095
0.00140929
0.00138009
0.00135331
0.001329
0.00130668
0.00128505
0.0012611
0.00123388
0.00120442
0.00117831
0.00115325
0.00112481
0.00109941
0.0010709
0.00104239
0.00101302
0.000986553
0.000959841
0.000921471
0.000876288
0.00082094
0.00074589
0.00064482
0.00050801
0.000330887
0.000145263
-4.78521e-05
-0.000234818
-0.000416922
-0.000598542
-0.00082176
-0.00128105
-0.00181799
-0.00213197
-0.00245852
-0.00299952
-0.00350188
-0.00388508
-0.00420253
-0.0043495
-0.00427865
-0.00399352
-0.00355983
-0.00307807
-0.00259351
-0.00217616
-0.00184033
-0.00155127
-0.00135313
-0.00119766
-0.00102146
-0.000852701
-0.000648422
-0.000367393
-9.39441e-05
0.000130806
0.000376175
0.00067034
0.000982393
0.00129092
0.00159699
0.00190152
0.00220429
0.00251053
0.00281954
0.00314014
0.00346732
0.00381177
0.00416718
0.0045408
0.00493154
0.00533765
0.00576818
0.00621318
0.00668955
0.00718066
0.0076967
0.00828286
0.000504235
0.000563974
0.00102164
0.00149196
0.00181844
0.00196805
0.00196431
0.00186812
0.0017415
0.00162619
0.00154141
0.00149161
0.00147071
0.00146701
0.00146928
0.0014699
0.00146592
0.00145702
0.00144423
0.0014274
0.00140734
0.00138518
0.00136253
0.00134099
0.00132105
0.00130125
0.00128172
0.00126222
0.00124042
0.00121657
0.0011896
0.00116451
0.00114011
0.00111204
0.001085
0.00105721
0.00102741
0.000994538
0.000961969
0.000930776
0.000888901
0.000835947
0.000776826
0.000696079
0.000594922
0.000464355
0.000296048
0.000121968
-6.89605e-05
-0.00025268
-0.000438553
-0.000642808
-0.000861921
-0.00127405
-0.00177893
-0.00209439
-0.00240879
-0.00291429
-0.00338362
-0.00373853
-0.00403839
-0.00418515
-0.00413188
-0.00387958
-0.00348007
-0.00302732
-0.00256489
-0.00215952
-0.00182966
-0.00154385
-0.00134338
-0.00118573
-0.00100928
-0.000838748
-0.000634339
-0.000356946
-8.6394e-05
0.000138305
0.000383505
0.00067582
0.000985451
0.00129213
0.00159742
0.00190172
0.00220413
0.00251002
0.00281881
0.00313925
0.00346656
0.00381137
0.00416697
0.00454079
0.00493154
0.00533765
0.00576816
0.00621315
0.0066895
0.00718056
0.00769663
0.00828334
0.0025459
0.00248156
0.0020124
0.00152632
0.00118235
0.0010155
0.00100456
0.00108944
0.00120717
0.00131449
0.0013908