/*--------------------------------*- C++ -*----------------------------------*\
| =========                 |                                                 |
| \\      /  F ield         | OpenFOAM: The Open Source CFD Toolbox           |
|  \\    /   O peration     | Version:  2312                                  |
|   \\  /    A nd           | Website:  www.openfoam.com                      |
|    \\/     M anipulation  |                                                 |
\*---------------------------------------------------------------------------*/
FoamFile
{
    version     2.0;
    format      ascii;
    arch        "LSB;label=32;scalar=64";
    class       surfaceScalarField;
    location    "0.25";
    object      phi;
}
// * * * * * * * * * * * * * * * * * * * * * * * * * * * * * * * * * * * * * //

dimensions      [0 3 -1 0 0 0 0];

oriented        oriented;

internalField   nonuniform List<scalar> 
11020
(
3.87768e-06
-6.9136e-08
3.87745e-06
5.55203e-08
3.87733e-06
-2.81975e-08
3.87737e-06
4.07734e-08
3.87744e-06
-4.56895e-08
3.87845e-06
-3.97929e-09
3.87747e-06
-3.35722e-08
3.87721e-06
1.72317e-08
3.87711e-06
1.089e-08
3.87721e-06
5.54707e-08
3.87521e-06
4.29352e-08
3.87551e-06
4.01486e-08
3.87483e-06
4.89901e-09
3.87498e-06
-8.67875e-09
3.87461e-06
-3.47417e-08
3.87452e-06
-4.05745e-08
3.87449e-06
-5.38926e-08
3.87375e-06
-4.46497e-08
3.87284e-06
-4.49125e-08
3.87243e-06
-3.27281e-08
3.87195e-06
-2.81472e-08
3.87183e-06
-1.59632e-08
3.87138e-06
-8.92384e-09
3.87092e-06
2.26832e-09
3.87022e-06
7.79058e-09
3.86952e-06
1.55346e-08
3.86875e-06
1.88794e-08
3.86803e-06
2.31962e-08
3.86726e-06
2.46089e-08
3.8666e-06
2.64699e-08
3.86586e-06
2.63574e-08
3.86503e-06
2.66371e-08
3.86388e-06
2.5949e-08
3.86274e-06
2.55224e-08
3.86147e-06
2.45013e-08
3.86035e-06
2.35814e-08
3.8592e-06
2.22796e-08
3.8581e-06
2.11807e-08
3.85687e-06
1.99784e-08
1.90526e-08
3.85556e-06
4.18301e-06
-6.62822e-08
4.1876e-06
5.0928e-08
4.18394e-06
-2.45373e-08
4.18811e-06
3.66009e-08
4.18447e-06
-4.20467e-08
4.18808e-06
-7.59618e-09
4.18403e-06
-2.95199e-08
4.18639e-06
1.48724e-08
4.18412e-06
1.31616e-08
4.18732e-06
5.22677e-08
4.18436e-06
4.58962e-08
4.187e-06
3.75098e-08
4.18492e-06
6.97567e-09
4.18595e-06
-9.70297e-09
4.18375e-06
-3.25409e-08
4.18368e-06
-4.05033e-08
4.182e-06
-5.22157e-08
4.18099e-06
-4.36425e-08
4.17876e-06
-4.2679e-08
4.17846e-06
-3.24247e-08
4.17696e-06
-2.66529e-08
4.17708e-06
-1.60844e-08
4.17606e-06
-7.90255e-09
4.17597e-06
2.36129e-09
4.17498e-06
8.77933e-09
4.17468e-06
1.5832e-08
4.17394e-06
1.96183e-08
4.17366e-06
2.34827e-08
4.17294e-06
2.53287e-08
4.17247e-06
2.69349e-08
4.17152e-06
2.73109e-08
4.17082e-06
2.73346e-08
4.16994e-06
2.68251e-08
4.16942e-06
2.60495e-08
4.16877e-06
2.51449e-08
4.16832e-06
2.40376e-08
4.16771e-06
2.28866e-08
4.16724e-06
2.16537e-08
4.16672e-06
2.04965e-08
1.93651e-08
4.16641e-06
4.51642e-06
-6.26405e-08
4.52064e-06
4.67079e-08
4.51733e-06
-2.12269e-08
4.52115e-06
3.27851e-08
4.51723e-06
-3.81327e-08
4.51914e-06
-9.50153e-09
4.51541e-06
-2.57904e-08
4.51729e-06
1.29935e-08
4.51536e-06
1.50908e-08
4.51876e-06
4.8868e-08
4.5187e-06
4.5954e-08
4.52137e-06
3.48395e-08
4.52019e-06
8.15843e-09
4.52042e-06
-9.93732e-09
4.51767e-06
-2.97905e-08
4.51627e-06
-3.91075e-08
4.51297e-06
-4.89062e-08
4.5113e-06
-4.19757e-08
4.50802e-06
-3.94028e-08
4.5069e-06
-3.12985e-08
4.50458e-06
-2.43396e-08
4.50383e-06
-1.53347e-08
4.50247e-06
-6.53449e-09
4.50228e-06
2.54171e-09
4.5015e-06
9.55943e-09
4.50129e-06
1.60506e-08
4.50092e-06
1.99824e-08
4.50099e-06
2.34121e-08
4.50093e-06
2.53872e-08
4.501e-06
2.68706e-08
4.50072e-06
2.75913e-08
4.50047e-06
2.75814e-08
4.50008e-06
2.72181e-08
4.49993e-06
2.62003e-08
4.49981e-06
2.52667e-08
4.49977e-06
2.40774e-08
4.49971e-06
2.29451e-08
4.49967e-06
2.16865e-08
4.49966e-06
2.05152e-08
1.93639e-08
4.49966e-06
4.87761e-06
-5.93009e-08
4.88101e-06
4.33033e-08
4.87842e-06
-1.86365e-08
4.8817e-06
2.95063e-08
4.87781e-06
-3.42392e-08
4.87849e-06
-1.018e-08
4.87485e-06
-2.215e-08
4.87626e-06
1.15763e-08
4.87469e-06
1.66661e-08
4.87834e-06
4.5219e-08
4.87982e-06
4.44681e-08
4.88268e-06
3.19868e-08
4.88218e-06
8.65584e-09
4.88194e-06
-9.69911e-09
4.87933e-06
-2.71842e-08
4.87672e-06
-3.64982e-08
4.87277e-06
-4.49516e-08
4.8701e-06
-3.93098e-08
4.86659e-06
-3.5889e-08
4.86418e-06
-2.88867e-08
4.86144e-06
-2.16034e-08
4.85956e-06
-1.34487e-08
4.85788e-06
-4.86311e-09
4.85711e-06
3.31786e-09
4.85656e-06
1.01073e-08
4.85626e-06
1.63511e-08
4.85608e-06
2.01628e-08
4.85602e-06
2.34669e-08
4.85593e-06
2.54795e-08
4.85604e-06
2.67651e-08
4.85626e-06
2.73718e-08
4.85664e-06
2.72023e-08
4.857e-06
2.68559e-08
4.8573e-06
2.58974e-08
4.85761e-06
2.49615e-08
4.85792e-06
2.37629e-08
4.85826e-06
2.26096e-08
4.85858e-06
2.13681e-08
4.85889e-06
2.01961e-08
1.9024e-08
4.85923e-06
5.2673e-06
-5.59553e-08
5.27066e-06
3.99474e-08
5.26812e-06
-1.60985e-08
5.27142e-06
2.62005e-08
5.26731e-06
-3.01245e-08
5.26779e-06
-1.06593e-08
5.26393e-06
-1.82953e-08
5.26527e-06
1.02383e-08
5.26379e-06
1.81487e-08
5.26763e-06
4.13752e-08
5.26957e-06
4.25294e-08
5.27251e-06
2.90486e-08
5.27229e-06
8.88126e-09
5.27181e-06
-9.21912e-09
5.26929e-06
-2.4669e-08
5.26631e-06
-3.35162e-08
5.26196e-06
-4.06067e-08
5.25879e-06
-3.61378e-08
5.25501e-06
-3.21087e-08
5.2521e-06
-2.59757e-08
5.24905e-06
-1.85518e-08
5.24677e-06
-1.11748e-08
5.24483e-06
-2.92313e-09
5.24369e-06
4.45815e-09
5.24301e-06
1.07927e-08
5.24268e-06
1.66836e-08
5.24247e-06
2.03707e-08
5.24249e-06
2.34415e-08
5.24257e-06
2.54049e-08
5.24283e-06
2.6503e-08
5.24321e-06
2.69945e-08
5.24366e-06
2.67513e-08
5.24416e-06
2.63554e-08
5.24463e-06
2.54267e-08
5.2451e-06
2.44927e-08
5.24557e-06
2.32934e-08
5.24607e-06
2.2111e-08
5.24658e-06
2.08592e-08
5.24713e-06
1.96464e-08
1.84211e-08
5.24773e-06
5.68796e-06
-5.24585e-08
5.69147e-06
3.64401e-08
5.68883e-06
-1.34611e-08
5.69218e-06
2.28482e-08
5.68799e-06
-2.59263e-08
5.68835e-06
-1.10187e-08
5.68448e-06
-1.44251e-08
5.68569e-06
9.02182e-09
5.68445e-06
1.93875e-08
5.68811e-06
3.77225e-08
5.69037e-06
4.02657e-08
5.69293e-06
2.64854e-08
5.69313e-06
8.68832e-09
5.6922e-06
-8.29138e-09
5.68984e-06
-2.23095e-08
5.68668e-06
-3.03544e-08
5.68228e-06
-3.62071e-08
5.67881e-06
-3.26712e-08
5.67504e-06
-2.83394e-08
5.67186e-06
-2.27933e-08
5.66878e-06
-1.54692e-08
5.66627e-06
-8.67013e-09
5.66434e-06
-9.89788e-10
5.66296e-06
5.84065e-09
5.66212e-06
1.16281e-08
5.66172e-06
1.70836e-08
5.66143e-06
2.06603e-08
5.66141e-06
2.34584e-08
5.66153e-06
2.52894e-08
5.66186e-06
2.6168e-08
5.66227e-06
2.65885e-08
5.66274e-06
2.62805e-08
5.66326e-06
2.58389e-08
5.66376e-06
2.49256e-08
5.66424e-06
2.40069e-08
5.66471e-06
2.28308e-08
5.66519e-06
2.16249e-08
5.66573e-06
2.03214e-08
5.66633e-06
1.90515e-08
1.77925e-08
5.66695e-06
6.1422e-06
-4.87881e-08
6.1459e-06
3.27381e-08
6.14305e-06
-1.06105e-08
6.14648e-06
1.94176e-08
6.14218e-06
-2.1624e-08
6.14257e-06
-1.14061e-08
6.13873e-06
-1.05839e-08
6.13984e-06
7.91087e-09
6.13879e-06
2.0432e-08
6.14219e-06
3.43291e-08
6.14463e-06
3.78211e-08
6.1469e-06
2.42175e-08
6.14714e-06
8.44673e-09
6.14607e-06
-7.22306e-09
6.1436e-06
-1.98381e-08
6.14044e-06
-2.71932e-08
6.13603e-06
-3.17985e-08
6.13243e-06
-2.90661e-08
6.12858e-06
-2.44967e-08
6.12533e-06
-1.95429e-08
6.12229e-06
-1.24238e-08
6.11976e-06
-6.14644e-09
6.11783e-06
9.40872e-10
6.11636e-06
7.31226e-09
6.11532e-06
1.26689e-08
6.11482e-06
1.75807e-08
6.11445e-06
2.10302e-08
6.11446e-06
2.34492e-08
6.11466e-06
2.50901e-08
6.11502e-06
2.58077e-08
6.11543e-06
2.61768e-08
6.11587e-06
2.58407e-08
6.11632e-06
2.53894e-08
6.11676e-06
2.44927e-08
6.11718e-06
2.35845e-08
6.11758e-06
2.24289e-08
6.118e-06
2.12089e-08
6.11843e-06
1.98863e-08
6.11893e-06
1.85511e-08
1.72084e-08
6.11952e-06
6.63274e-06
-4.4963e-08
6.63658e-06
2.88899e-08
6.63363e-06
-7.65666e-09
6.63699e-06
1.60556e-08
6.63276e-06
-1.73922e-08
6.63296e-06
-1.16012e-08
6.62934e-06
-6.97036e-09
6.63021e-06
7.0485e-09
6.62952e-06
2.1122e-08
6.63257e-06
3.12763e-08
6.635e-06
3.53903e-08
6.63719e-06
2.2026e-08
6.63708e-06
8.55461e-09
6.63617e-06
-6.30958e-09
6.63343e-06
-1.70959e-08
6.63041e-06
-2.41761e-08
6.62592e-06
-2.7305e-08
6.62233e-06
-2.54794e-08
6.61846e-06
-2.06318e-08
6.61522e-06
-1.62952e-08
6.61213e-06
-9.33462e-09
6.60965e-06
-3.67193e-09
6.60762e-06
2.97494e-09
6.6062e-06
8.72774e-09
6.605e-06
1.38772e-08
6.6045e-06
1.80763e-08
6.60414e-06
2.13872e-08
6.60422e-06
2.33717e-08
6.60441e-06
2.48963e-08
6.60474e-06
2.54784e-08
6.60509e-06
2.58291e-08
6.60548e-06
2.54527e-08
6.60582e-06
2.50455e-08
6.60613e-06
2.4188e-08
6.6064e-06
2.33147e-08
6.6067e-06
2.21257e-08
6.60701e-06
2.09006e-08
6.60738e-06
1.95162e-08
6.60761e-06
1.83194e-08
1.68804e-08
6.60794e-06
7.16247e-06
-4.10006e-08
7.16645e-06
2.49038e-08
7.16335e-06
-4.54785e-09
7.16664e-06
1.27578e-08
7.1625e-06
-1.32494e-08
7.16253e-06
-1.16262e-08
7.15925e-06
-3.69387e-09
7.1597e-06
6.60104e-09
7.15955e-06
2.12702e-08
7.16208e-06
2.8747e-08
7.16456e-06
3.29042e-08
7.16653e-06
2.00574e-08
7.16634e-06
8.74636e-09
7.16532e-06
-5.28558e-09
7.16253e-06
-1.43095e-08
7.15942e-06
-2.10691e-08
7.15503e-06
-2.29132e-08
7.15135e-06
-2.18029e-08
7.14749e-06
-1.6771e-08
7.14418e-06
-1.29794e-08
7.14112e-06
-6.27931e-09
7.13864e-06
-1.19317e-09
7.13646e-06
5.15996e-09
7.13498e-06
1.02066e-08
7.13376e-06
1.50951e-08
7.13327e-06
1.85727e-08
7.13306e-06
2.15909e-08
7.13317e-06
2.32609e-08
7.13344e-06
2.46245e-08
7.13384e-06
2.50835e-08
7.13421e-06
2.5454e-08
7.13451e-06
2.51541e-08
7.13469e-06
2.48703e-08
7.13473e-06
2.41413e-08
7.13464e-06
2.34098e-08
7.13443e-06
2.23375e-08
7.13409e-06
2.12344e-08
7.1338e-06
1.98058e-08
7.13423e-06
1.78956e-08
1.56419e-08
7.13547e-06
7.73454e-06
-3.69363e-08
7.73859e-06
2.08578e-08
7.73549e-06
-1.45192e-09
7.73851e-06
9.74183e-09
7.73469e-06
-9.43766e-09
7.73422e-06
-1.1151e-08
7.73171e-06
-1.18553e-09
7.73118e-06
7.13389e-09
7.73208e-06
2.037e-08
7.73367e-06
2.71501e-08
7.73663e-06
2.99507e-08
7.73776e-06
1.89254e-08
7.73807e-06
8.43486e-09
7.73641e-06
-3.61999e-09
7.73403e-06
-1.19297e-08
7.73051e-06
-1.75538e-08
7.72654e-06
-1.89413e-08
7.72255e-06
-1.78115e-08
7.71899e-06
-1.32133e-08
7.71545e-06
-9.43965e-09
7.71257e-06
-3.40197e-09
7.70991e-06
1.46942e-09
7.70781e-06
7.26264e-09
7.70623e-06
1.1788e-08
7.70521e-06
1.61078e-08
7.70461e-06
1.91793e-08
7.70448e-06
2.17181e-08
7.70449e-06
2.32459e-08
7.70485e-06
2.42678e-08
7.70528e-06
2.46516e-08
7.706e-06
2.4741e-08
7.70695e-06
2.4197e-08
7.70829e-06
2.35312e-08
7.70986e-06
2.25708e-08
7.71165e-06
2.16232e-08
7.71348e-06
2.05119e-08
7.71529e-06
1.94218e-08
7.71689e-06
1.82009e-08
7.71761e-06
1.71769e-08
1.58022e-08
7.71745e-06
8.35234e-06
-3.2811e-08
8.35639e-06
1.68006e-08
8.35331e-06
1.62652e-09
8.35599e-06
7.06221e-09
8.35263e-06
-6.07095e-09
8.35148e-06
-1.00085e-08
8.34996e-06
3.40469e-10
8.34869e-06
8.39876e-09
8.34988e-06
1.9186e-08
8.35119e-06
2.58408e-08
8.3541e-06
2.70409e-08
8.35483e-06
1.81884e-08
8.35521e-06
8.06165e-09
8.35334e-06
-1.74962e-09
8.351e-06
-9.5953e-09
8.34738e-06
-1.39268e-08
8.34355e-06
-1.5114e-08
8.3395e-06
-1.37629e-08
8.336e-06
-9.71839e-09
8.33236e-06
-5.79766e-09
8.3295e-06
-5.44604e-10
8.32688e-06
4.0981e-09
8.3249e-06
9.23862e-09
8.32339e-06
1.33013e-08
8.32253e-06
1.69626e-08
8.32189e-06
1.98181e-08
8.32182e-06
2.17933e-08
8.32184e-06
2.32258e-08
8.32225e-06
2.38601e-08
8.32281e-06
2.40826e-08
8.32387e-06
2.36811e-08
8.32503e-06
2.30432e-08
8.32633e-06
2.22302e-08
8.32762e-06
2.1281e-08
8.32882e-06
2.04208e-08
8.32994e-06
1.93948e-08
8.331e-06
1.83636e-08
8.33197e-06
1.72318e-08
8.33304e-06
1.61055e-08
1.49048e-08
8.33393e-06
9.01952e-06
-2.86852e-08
9.02348e-06
1.28446e-08
9.02065e-06
4.4509e-09
9.0227e-06
5.01201e-09
9.02006e-06
-3.4276e-09
9.01792e-06
-7.86808e-09
9.0171e-06
1.16095e-09
9.01592e-06
9.57421e-09
9.01682e-06
1.8289e-08
9.01831e-06
2.43506e-08
9.02064e-06
2.47157e-08
9.0215e-06
1.73259e-08
9.0214e-06
8.157e-09
9.01972e-06
-6.25771e-11
9.01708e-06
-6.95775e-09
9.0137e-06
-1.05531e-08
9.00978e-06
-1.11882e-08
9.00586e-06
-9.84448e-09
9.00234e-06
-6.20106e-09
8.99886e-06
-2.31921e-09
8.99595e-06
2.37225e-09
8.99352e-06
6.52766e-09
8.9916e-06
1.11548e-08
8.9902e-06
1.47063e-08
8.98943e-06
1.77286e-08
8.98892e-06
2.03322e-08
8.98892e-06
2.17885e-08
8.9893e-06
2.28526e-08
8.99008e-06
2.30739e-08
8.9911e-06
2.30674e-08
8.99214e-06
2.26394e-08
8.99315e-06
2.20336e-08
8.99401e-06
2.13635e-08
8.99484e-06
2.0458e-08
8.9957e-06
1.95608e-08
8.99654e-06
1.85483e-08
8.99736e-06
1.75444e-08
8.9981e-06
1.64908e-08
8.9987e-06
1.55083e-08
1.4559e-08
8.99905e-06
9.74005e-06
-2.46298e-08
9.74379e-06
9.09984e-09
9.74147e-06
6.76802e-09
9.74265e-06
3.84106e-09
9.74095e-06
-1.73203e-09
9.73814e-06
-5.05725e-09
9.73737e-06
1.92558e-09
9.73644e-06
1.05069e-08
9.73709e-06
1.76441e-08
9.73855e-06
2.28872e-08
9.7405e-06
2.27685e-08
9.74129e-06
1.65364e-08
9.74093e-06
8.51792e-09
9.73925e-06
1.60988e-09
9.73651e-06
-4.21173e-09
9.73318e-06
-7.22268e-09
9.72934e-06
-7.34752e-09
9.72542e-06
-5.93266e-09
9.72196e-06
-2.73785e-09
9.71863e-06
1.00884e-09
9.71578e-06
5.223e-09
9.71351e-06
8.80018e-09
9.71182e-06
1.2847e-08
9.71058e-06
1.59408e-08
9.71005e-06
1.82659e-08
9.70987e-06
2.05086e-08
9.71014e-06
2.15229e-08
9.71065e-06
2.23401e-08
9.71129e-06
2.2436e-08
9.71197e-06
2.23813e-08
9.71265e-06
2.19594e-08
9.71338e-06
2.13061e-08
9.71414e-06
2.06019e-08
9.71489e-06
1.97129e-08
9.7156e-06
1.88436e-08
9.71629e-06
1.7859e-08
9.71688e-06
1.69595e-08
9.71738e-06
1.59863e-08
9.71779e-06
1.50989e-08
1.41636e-08
9.71819e-06
1.05182e-05
-2.07413e-08
1.05216e-05
5.71074e-09
1.05206e-05
7.7477e-09
1.05202e-05
4.19352e-09
1.05189e-05
-4.13266e-10
1.05162e-05
-2.30515e-09
1.0515e-05
3.07579e-09
1.05145e-05
1.10014e-08
1.0515e-05
1.72255e-08
1.05163e-05
2.15581e-08
1.05179e-05
2.11571e-08
1.05185e-05
1.59695e-08
1.05179e-05
9.0661e-09
1.05162e-05
3.33618e-09
1.05134e-05
-1.40769e-09
1.05101e-05
-3.91825e-09
1.05064e-05
-3.69869e-09
1.05026e-05
-2.09935e-09
1.04992e-05
6.55486e-10
1.04962e-05
4.04019e-09
1.04935e-05
7.91082e-09
1.04914e-05
1.09056e-08
1.04899e-05
1.43126e-08
1.04888e-05
1.70529e-08
1.04883e-05
1.87835e-08
1.04881e-05
2.06735e-08
1.04882e-05
2.13996e-08
1.04887e-05
2.19095e-08
1.04892e-05
2.18782e-08
1.04899e-05
2.16834e-08
1.04906e-05
2.12972e-08
1.04913e-05
2.06361e-08
1.04919e-05
1.99458e-08
1.04926e-05
1.90611e-08
1.04932e-05
1.82557e-08
1.04937e-05
1.73118e-08
1.04942e-05
1.64558e-08
1.04947e-05
1.55294e-08
1.04951e-05
1.46562e-08
1.37699e-08
1.04955e-05
1.13585e-05
-1.70887e-08
1.13614e-05
2.7867e-09
1.13611e-05
8.08383e-09
1.13601e-05
5.2184e-09
1.13588e-05
8.31891e-10
1.13564e-05
9.26905e-11
1.13549e-05
4.58909e-09
1.13546e-05
1.13115e-08
1.13549e-05
1.68969e-08
1.13561e-05
2.04048e-08
1.13574e-05
1.98789e-08
1.13578e-05
1.55663e-08
1.1357e-05
9.83051e-09
1.13553e-05
5.07449e-09
1.13525e-05
1.38533e-09
1.13492e-05
-6.0118e-10
1.13457e-05
-2.09083e-10
1.13421e-05
1.4971e-09
1.13388e-05
3.97679e-09
1.1336e-05
6.84376e-09
1.13335e-05
1.03808e-08
1.13315e-05
1.28936e-08
1.13302e-05
1.5611e-08
1.13292e-05
1.80294e-08
1.13287e-05
1.92765e-08
1.13287e-05
2.07419e-08
1.13288e-05
2.12986e-08
1.13291e-05
2.15854e-08
1.13295e-05
2.14729e-08
1.133e-05
2.11295e-08
1.13306e-05
2.07319e-08
1.13312e-05
2.00446e-08
1.13318e-05
1.93717e-08
1.13323e-05
1.84982e-08
1.13329e-05
1.77033e-08
1.13334e-05
1.67957e-08
1.13339e-05
1.59576e-08
1.13344e-05
1.50519e-08
1.13348e-05
1.42017e-08
1.3304e-08
1.13353e-05
1.2266e-05
-1.37471e-08
1.22684e-05
3.94534e-10
1.22684e-05
8.06504e-09
1.22673e-05
6.37071e-09
1.22658e-05
2.30875e-09
1.22638e-05
2.11675e-09
1.22622e-05
6.18856e-09
1.22617e-05
1.17507e-08
1.22621e-05
1.65417e-08
1.2263e-05
1.94772e-08
1.2264e-05
1.89232e-08
1.22641e-05
1.54097e-08
1.22632e-05
1.07634e-08
1.22614e-05
6.89463e-09
1.22586e-05
4.11287e-09
1.22554e-05
2.63268e-09
1.22521e-05
3.1289e-09
1.22488e-05
4.78985e-09
1.22456e-05
7.112e-09
1.2243e-05
9.49316e-09
1.22408e-05
1.25591e-08
1.2239e-05
1.47401e-08
1.22378e-05
1.67736e-08
1.2237e-05
1.88439e-08
1.22365e-05
1.97331e-08
1.22365e-05
2.07949e-08
1.22365e-05
2.1224e-08
1.22368e-05
2.1344e-08
1.22371e-05
2.11444e-08
1.22376e-05
2.06836e-08
1.22381e-05
2.02297e-08
1.22386e-05
1.95343e-08
1.22391e-05
1.88563e-08
1.22396e-05
1.80017e-08
1.22401e-05
1.72006e-08
1.22406e-05
1.63221e-08
1.2241e-05
1.54832e-08
1.22415e-05
1.46087e-08
1.22419e-05
1.37679e-08
1.29801e-08
1.22422e-05
1.3246e-05
-1.07893e-08
1.32477e-05
-1.33099e-09
1.3248e-05
7.74818e-09
1.3247e-05
7.38825e-09
1.32453e-05
4.05569e-09
1.32434e-05
3.93208e-09
1.32419e-05
7.71703e-09
1.32413e-05
1.23699e-08
1.32416e-05
1.62663e-08
1.32423e-05
1.87433e-08
1.3243e-05
1.82578e-08
1.32429e-05
1.5462e-08
1.32418e-05
1.18295e-08
1.324e-05
8.76376e-09
1.32373e-05
6.74512e-09
1.32342e-05
5.72626e-09
1.32311e-05
6.31607e-09
1.3228e-05
7.85925e-09
1.32251e-05
9.97368e-09
1.32226e-05
1.19851e-08
1.32207e-05
1.44913e-08
1.3219e-05
1.64358e-08
1.32179e-05
1.78767e-08
1.32172e-05
1.95545e-08
1.32167e-05
2.02155e-08
1.32166e-05
2.08908e-08
1.32167e-05
2.11772e-08
1.32169e-05
2.11379e-08
1.32172e-05
2.08613e-08
1.32175e-05
2.03052e-08
1.3218e-05
1.97857e-08
1.32184e-05
1.90762e-08
1.32189e-05
1.83727e-08
1.32194e-05
1.75337e-08
1.32199e-05
1.67184e-08
1.32203e-05
1.58611e-08
1.32208e-05
1.50263e-08
1.32212e-05
1.41906e-08
1.32216e-05
1.33768e-08
1.25531e-08
1.3222e-05
1.43042e-05
-8.28183e-09
1.4305e-05
-2.10498e-09
1.43057e-05
7.03614e-09
1.4305e-05
8.14804e-09
1.43031e-05
5.91266e-09
1.43013e-05
5.75928e-09
1.42999e-05
9.07751e-09
1.42992e-05
1.30629e-08
1.42993e-05
1.61944e-08
1.42998e-05
1.82072e-08
1.43002e-05
1.7868e-08
1.42999e-05
1.57395e-08
1.42987e-05
1.30326e-08
1.42968e-05
1.0665e-08
1.42943e-05
9.31515e-09
1.42913e-05
8.64871e-09
1.42884e-05
9.23697e-09
1.42856e-05
1.07193e-08
1.4283e-05
1.2536e-08
1.42807e-05
1.42759e-08
1.42789e-05
1.62491e-08
1.42775e-05
1.7911e-08
1.42764e-05
1.89312e-08
1.42758e-05
2.01594e-08
1.42754e-05
2.06659e-08
1.42752e-05
2.10079e-08
1.42753e-05
2.11201e-08
1.42755e-05
2.09294e-08
1.42758e-05
2.05857e-08
1.42761e-05
1.99722e-08
1.42765e-05
1.93779e-08
1.4277e-05
1.86505e-08
1.42774e-05
1.79213e-08
1.42778e-05
1.71e-08
1.42783e-05
1.62756e-08
1.42787e-05
1.54338e-08
1.42791e-05
1.46016e-08
1.42795e-05
1.37869e-08
1.42799e-05
1.29816e-08
1.21887e-08
1.42803e-05
1.5447e-05
-6.25731e-09
1.54466e-05
-1.73466e-09
1.54477e-05
5.90854e-09
1.54473e-05
8.56873e-09
1.54456e-05
7.66853e-09
1.54436e-05
7.68867e-09
1.54423e-05
1.0365e-08
1.54416e-05
1.37689e-08
1.54415e-05
1.63271e-08
1.54418e-05
1.79287e-08
1.54419e-05
1.77322e-08
1.54415e-05
1.61684e-08
1.54402e-05
1.43182e-08
1.54383e-05
1.25695e-08
1.54359e-05
1.17319e-08
1.54331e-05
1.14473e-08
1.54304e-05
1.18969e-08
1.54278e-05
1.33317e-08
1.54255e-05
1.48824e-08
1.54234e-05
1.63121e-08
1.54218e-05
1.78568e-08
1.54205e-05
1.91911e-08
1.54195e-05
1.99299e-08
1.5419e-05
2.06949e-08
1.54186e-05
2.10481e-08
1.54185e-05
2.11158e-08
1.54186e-05
2.10653e-08
1.54187e-05
2.07547e-08
1.5419e-05
2.03312e-08
1.54193e-05
1.9677e-08
1.54197e-05
1.90068e-08
1.54201e-05
1.82554e-08
1.54205e-05
1.74911e-08
1.54209e-05
1.66781e-08
1.54213e-05
1.58458e-08
1.54218e-05
1.50167e-08
1.54222e-05
1.41903e-08
1.54226e-05
1.3394e-08
1.54229e-05
1.26057e-08
1.18323e-08
1.54233e-05
1.66809e-05
-4.68063e-09
1.66801e-05
-9.48324e-10
1.66809e-05
5.12564e-09
1.66807e-05
8.74459e-09
1.66792e-05
9.17213e-09
1.66773e-05
9.60484e-09
1.6676e-05
1.16808e-08
1.66753e-05
1.44747e-08
1.6675e-05
1.66197e-08
1.6675e-05
1.79207e-08
1.66749e-05
1.78581e-08
1.66743e-05
1.67561e-08
1.66729e-05
1.56507e-08
1.6671e-05
1.44888e-08
1.66688e-05
1.39803e-08
1.66661e-05
1.40816e-08
1.66637e-05
1.43451e-08
1.66614e-05
1.55996e-08
1.66593e-05
1.70126e-08
1.66575e-05
1.81059e-08
1.6656e-05
1.92961e-08
1.6655e-05
2.02694e-08
1.66541e-05
2.08022e-08
1.66536e-05
2.11651e-08
1.66534e-05
2.13252e-08
1.66533e-05
2.12011e-08
1.66533e-05
2.09927e-08
1.66535e-05
2.05806e-08
1.66538e-05
2.00617e-08
1.66541e-05
1.9381e-08
1.66544e-05
1.86455e-08
1.66548e-05
1.78755e-08
1.66552e-05
1.70783e-08
1.66556e-05
1.62725e-08
1.6656e-05
1.54385e-08
1.66564e-05
1.46228e-08
1.66568e-05
1.38032e-08
1.66572e-05
1.30198e-08
1.66576e-05
1.22448e-08
1.14879e-08
1.66579e-05
1.80132e-05
-3.44661e-09
1.80123e-05
-9.13449e-11
1.80124e-05
5.06978e-09
1.80124e-05
8.69688e-09
1.80113e-05
1.03103e-08
1.80095e-05
1.13615e-08
1.80081e-05
1.30921e-08
1.80073e-05
1.526e-08
1.80069e-05
1.70368e-08
1.80067e-05
1.81416e-08
1.80063e-05
1.8232e-08
1.80056e-05
1.74839e-08
1.80043e-05
1.69429e-08
1.80024e-05
1.63702e-08
1.80003e-05
1.60459e-08
1.7998e-05
1.64501e-08
1.79956e-05
1.66701e-08
1.79937e-05
1.75417e-08
1.79918e-05
1.88727e-08
1.79903e-05
1.96886e-08
1.7989e-05
2.05475e-08
1.79881e-05
2.11792e-08
1.79874e-05
2.15258e-08
1.79869e-05
2.15952e-08
1.79867e-05
2.15239e-08
1.79867e-05
2.12555e-08
1.79868e-05
2.08854e-08
1.7987e-05
2.04022e-08
1.79873e-05
1.97897e-08
1.79875e-05
1.90881e-08
1.79879e-05
1.82982e-08
1.79883e-05
1.75104e-08
1.79887e-05
1.66831e-08
1.79891e-05
1.58761e-08
1.79894e-05
1.504e-08
1.79898e-05
1.42325e-08
1.79902e-05
1.34207e-08
1.79906e-05
1.26483e-08
1.79909e-05
1.18885e-08
1.11467e-08
1.79913e-05
1.94517e-05
-2.50203e-09
1.94509e-05
7.46388e-10
1.94504e-05
5.54676e-09
1.94504e-05
8.75076e-09
1.94496e-05
1.11241e-08
1.94481e-05
1.28537e-08
1.94467e-05
1.4491e-08
1.94458e-05
1.6161e-08
1.94452e-05
1.76001e-08
1.94448e-05
1.85542e-08
1.94442e-05
1.88e-08
1.94433e-05
1.83666e-08
1.94421e-05
1.81895e-08
1.94403e-05
1.81605e-08
1.94384e-05
1.79911e-08
1.94363e-05
1.8485e-08
1.94342e-05
1.88082e-08
1.94325e-05
1.92537e-08
1.9431e-05
2.03916e-08
1.94296e-05
2.10483e-08
1.94285e-05
2.16018e-08
1.94278e-05
2.19375e-08
1.94272e-05
2.20659e-08
1.94269e-05
2.19478e-08
1.94268e-05
2.16368e-08
1.94268e-05
2.12445e-08
1.94269e-05
2.07312e-08
1.94272e-05
2.01895e-08
1.94274e-05
1.95022e-08
1.94278e-05
1.87753e-08
1.94281e-05
1.79457e-08
1.94285e-05
1.71366e-08
1.94289e-05
1.62908e-08
1.94293e-05
1.54778e-08
1.94297e-05
1.46464e-08
1.94301e-05
1.38448e-08
1.94304e-05
1.30464e-08
1.94308e-05
1.22833e-08
1.94311e-05
1.15398e-08
1.08113e-08
1.94315e-05
2.10051e-05
-1.79118e-09
2.10043e-05
1.5474e-09
2.10036e-05
6.20731e-09
2.10032e-05
9.20453e-09
2.10025e-05
1.17728e-08
2.10014e-05
1.40131e-08
2.10001e-05
1.57671e-08
2.09991e-05
1.71808e-08
2.09983e-05
1.83376e-08
2.09978e-05
1.91354e-08
2.09971e-05
1.94934e-08
2.09961e-05
1.93568e-08
2.09949e-05
1.93881e-08
2.09933e-05
1.97554e-08
2.09915e-05
1.97941e-08
2.09898e-05
2.02076e-08
2.09879e-05
2.06676e-08
2.09863e-05
2.0814e-08
2.09851e-05
2.15947e-08
2.0984e-05
2.21544e-08
2.09832e-05
2.24463e-08
2.09826e-05
2.25534e-08
2.09822e-05
2.24417e-08
2.09819e-05
2.21897e-08
2.09819e-05
2.16942e-08
2.0982e-05
2.11794e-08
2.09821e-05
2.05441e-08
2.09824e-05
1.99294e-08
2.09827e-05
1.91898e-08
2.09831e-05
1.84314e-08
2.09834e-05
1.75846e-08
2.09838e-05
1.67517e-08
2.09842e-05
1.58988e-08
2.09846e-05
1.50742e-08
2.0985e-05
1.42518e-08
2.09854e-05
1.34527e-08
2.09858e-05
1.26706e-08
2.09861e-05
1.19152e-08
2.09865e-05
1.11895e-08
1.04727e-08
2.09868e-05
2.26824e-05
-1.27426e-09
2.26816e-05
2.30799e-09
2.26809e-05
6.92002e-09
2.26801e-05
1.00033e-08
2.26794e-05
1.24656e-08
2.26786e-05
1.48901e-08
2.26775e-05
1.68452e-08
2.26765e-05
1.82121e-08
2.26756e-05
1.92293e-08
2.26748e-05
1.98943e-08
2.2674e-05
2.02762e-08
2.2673e-05
2.03835e-08
2.26718e-05
2.05554e-08
2.26704e-05
2.11375e-08
2.26688e-05
2.14271e-08
2.26673e-05
2.16904e-08
2.26658e-05
2.21607e-08
2.26645e-05
2.21779e-08
2.26635e-05
2.25482e-08
2.26627e-05
2.29841e-08
2.26621e-05
2.30755e-08
2.26616e-05
2.30034e-08
2.26614e-05
2.26758e-08
2.26613e-05
2.2286e-08
2.26613e-05
2.16644e-08
2.26615e-05
2.10293e-08
2.26617e-05
2.0304e-08
2.2662e-05
1.9609e-08
2.26624e-05
1.88418e-08
2.26628e-05
1.80487e-08
2.26631e-05
1.72011e-08
2.26635e-05
1.63461e-08
2.26639e-05
1.54942e-08
2.26644e-05
1.46581e-08
2.26648e-05
1.38465e-08
2.26652e-05
1.30508e-08
2.26656e-05
1.2286e-08
2.26659e-05
1.15407e-08
2.26663e-05
1.0833e-08
1.01311e-08
2.26666e-05
2.44936e-05
-9.00323e-10
2.44929e-05
3.00058e-09
2.44921e-05
7.66141e-09
2.44912e-05
1.09303e-08
2.44903e-05
1.33473e-08
2.44896e-05
1.56477e-08
2.44887e-05
1.76945e-08
2.44878e-05
1.91791e-08
2.44868e-05
2.02025e-08
2.44859e-05
2.07998e-08
2.4485e-05
2.11353e-08
2.4484e-05
2.13825e-08
2.44829e-05
2.16647e-08
2.44818e-05
2.22952e-08
2.44804e-05
2.27837e-08
2.44791e-05
2.29661e-08
2.4478e-05
2.33126e-08
2.44769e-05
2.32895e-08
2.44761e-05
2.33068e-08
2.44755e-05
2.35329e-08
2.44752e-05
2.34695e-08
2.44749e-05
2.32735e-08
2.44748e-05
2.27932e-08
2.44748e-05
2.2248e-08
2.44749e-05
2.15389e-08
2.44752e-05
2.07924e-08
2.44755e-05
2.00109e-08
2.44758e-05
1.9237e-08
2.44762e-05
1.84494e-08
2.44767e-05
1.76242e-08
2.44771e-05
1.67816e-08
2.44775e-05
1.59141e-08
2.44779e-05
1.50674e-08
2.44784e-05
1.42264e-08
2.44788e-05
1.34243e-08
2.44792e-05
1.26361e-08
2.44796e-05
1.18876e-08
2.448e-05
1.11576e-08
2.44803e-05
1.0469e-08
9.7789e-09
2.44807e-05
2.64493e-05
-6.34621e-10
2.64487e-05
3.60947e-09
2.64479e-05
8.41877e-09
2.6447e-05
1.18778e-08
2.6446e-05
1.43617e-08
2.64452e-05
1.6432e-08
2.64445e-05
1.83945e-08
2.64437e-05
2.00065e-08
2.64427e-05
2.11411e-08
2.64417e-05
2.17895e-08
2.64408e-05
2.20711e-08
2.64398e-05
2.23333e-08
2.64388e-05
2.266e-08
2.64379e-05
2.32522e-08
2.64368e-05
2.38402e-08
2.64358e-05
2.40286e-08
2.64349e-05
2.41784e-08
2.64341e-05
2.40757e-08
2.64336e-05
2.38486e-08
2.64333e-05
2.38373e-08
2.64331e-05
2.36382e-08
2.6433e-05
2.33358e-08
2.64331e-05
2.27579e-08
2.64333e-05
2.207e-08
2.64335e-05
2.12941e-08
2.64338e-05
2.04664e-08
2.64342e-05
1.9644e-08
2.64346e-05
1.8805e-08
2.64351e-05
1.79961e-08
2.64356e-05
1.71516e-08
2.6436e-05
1.63154e-08
2.64365e-05
1.54492e-08
2.64369e-05
1.46097e-08
2.64374e-05
1.37735e-08
2.64378e-05
1.29798e-08
2.64383e-05
1.22041e-08
2.64387e-05
1.14695e-08
2.64391e-05
1.07571e-08
2.64395e-05
1.00833e-08
9.42196e-09
2.64398e-05
2.85611e-05
-4.48706e-10
2.85606e-05
4.13371e-09
2.85598e-05
9.1804e-09
2.85589e-05
1.28012e-08
2.85579e-05
1.53556e-08
2.85571e-05
1.73017e-08
2.85564e-05
1.90821e-08
2.85557e-05
2.06813e-08
2.85549e-05
2.19511e-08
2.85539e-05
2.27557e-08
2.85529e-05
2.30461e-08
2.85521e-05
2.32276e-08
2.85512e-05
2.35047e-08
2.85505e-05
2.39979e-08
2.85497e-05
2.45748e-08
2.8549e-05
2.47984e-08
2.85483e-05
2.47974e-08
2.85478e-05
2.4567e-08
2.85475e-05
2.41641e-08
2.85475e-05
2.39053e-08
2.85475e-05
2.35761e-08
2.85477e-05
2.31806e-08
2.85479e-05
2.25602e-08
2.85482e-05
2.17834e-08
2.85485e-05
2.09426e-08
2.85489e-05
2.00478e-08
2.85494e-05
1.91857e-08
2.85499e-05
1.83096e-08
2.85504e-05
1.74797e-08
2.85509e-05
1.66291e-08
2.85514e-05
1.57973e-08
2.8552e-05
1.49449e-08
2.85524e-05
1.41165e-08
2.85529e-05
1.32966e-08
2.85534e-05
1.25152e-08
2.85538e-05
1.17589e-08
2.85543e-05
1.10412e-08
2.85547e-05
1.03518e-08
2.8555e-05
9.69717e-09
9.06796e-09
2.85554e-05
3.08415e-05
-3.09847e-10
3.08411e-05
4.55201e-09
3.08403e-05
9.95469e-09
3.08395e-05
1.36734e-08
3.08386e-05
1.6232e-08
3.08377e-05
1.82102e-08
3.08369e-05
1.98435e-08
3.08363e-05
2.12674e-08
3.08357e-05
2.2565e-08
3.08349e-05
2.35754e-08
3.0834e-05
2.39958e-08
3.08331e-05
2.40679e-08
3.08324e-05
2.42072e-08
3.08319e-05
2.45227e-08
3.08315e-05
2.4978e-08
3.08311e-05
2.52238e-08
3.08307e-05
2.51452e-08
3.08305e-05
2.47816e-08
3.08304e-05
2.42194e-08
3.08306e-05
2.37303e-08
3.08309e-05
2.32696e-08
3.08313e-05
2.27887e-08
3.08317e-05
2.21542e-08
3.08322e-05
2.13488e-08
3.08326e-05
2.04702e-08
3.08331e-05
1.95359e-08
3.08337e-05
1.86355e-08
3.08343e-05
1.77374e-08
3.08349e-05
1.68876e-08
3.08354e-05
1.60384e-08
3.0836e-05
1.52115e-08
3.08366e-05
1.43796e-08
3.08371e-05
1.35676e-08
3.08377e-05
1.27702e-08
3.08382e-05
1.20051e-08
3.08387e-05
1.12706e-08
3.08391e-05
1.05727e-08
3.08396e-05
9.91891e-09
3.084e-05
9.28758e-09
8.70041e-09
3.08404e-05
3.3304e-05
-2.48478e-10
3.33037e-05
4.92235e-09
3.33029e-05
1.07453e-08
3.33021e-05
1.44209e-08
3.33014e-05
1.6921e-08
3.33006e-05
1.90681e-08
3.32998e-05
2.0663e-08
3.32992e-05
2.18554e-08
3.32987e-05
2.29976e-08
3.32982e-05
2.41604e-08
3.32974e-05
2.47866e-08
3.32966e-05
2.48244e-08
3.32961e-05
2.4749e-08
3.32957e-05
2.48758e-08
3.32955e-05
2.51552e-08
3.32954e-05
2.53314e-08
3.32954e-05
2.52017e-08
3.32954e-05
2.47649e-08
3.32955e-05
2.40704e-08
3.32959e-05
2.33623e-08
3.32964e-05
2.27358e-08
3.32971e-05
2.21466e-08
3.32977e-05
2.14949e-08
3.32984e-05
2.07186e-08
3.3299e-05
1.9846e-08
3.32996e-05
1.89161e-08
3.33003e-05
1.79942e-08
3.33009e-05
1.70908e-08
3.33016e-05
1.62289e-08
3.33022e-05
1.53877e-08
3.33029e-05
1.45677e-08
3.33035e-05
1.37366e-08
3.33041e-05
1.29496e-08
3.33047e-05
1.21857e-08
3.33053e-05
1.1451e-08
3.33058e-05
1.07473e-08
3.33063e-05
1.00768e-08
3.33068e-05
9.43985e-09
3.33072e-05
8.83489e-09
8.25241e-09
3.33077e-05
3.5963e-05
-1.66613e-10
3.59627e-05
5.24674e-09
3.5962e-05
1.144e-08
3.59613e-05
1.51042e-08
3.59608e-05
1.74958e-08
3.59601e-05
1.97581e-08
3.59593e-05
2.1404e-08
3.59587e-05
2.24596e-08
3.59583e-05
2.33851e-08
3.59581e-05
2.44571e-08
3.59576e-05
2.52716e-08
3.5957e-05
2.5379e-08
3.59566e-05
2.51133e-08
3.59566e-05
2.49679e-08
3.59567e-05
2.49961e-08
3.5957e-05
2.50272e-08
3.59574e-05
2.48296e-08
3.59578e-05
2.4375e-08
3.59582e-05
2.36412e-08
3.59588e-05
2.27936e-08
3.59595e-05
2.20139e-08
3.59603e-05
2.13036e-08
3.59612e-05
2.06219e-08
3.59621e-05
1.98763e-08
3.59629e-05
1.90319e-08
3.59637e-05
1.81304e-08
3.59644e-05
1.7216e-08
3.59652e-05
1.63295e-08
3.59659e-05
1.55093e-08
3.59666e-05
1.47006e-08
3.59673e-05
1.3909e-08
3.59679e-05
1.31398e-08
3.59684e-05
1.23905e-08
3.59689e-05
1.16651e-08
3.59694e-05
1.09643e-08
3.59699e-05
1.02928e-08
3.59703e-05
9.65055e-09
3.59707e-05
9.03998e-09
3.59711e-05
8.45922e-09
7.9178e-09
3.59714e-05
3.88349e-05
-5.77368e-10
3.88335e-05
6.57262e-09
3.88339e-05
1.11003e-08
3.88328e-05
1.61799e-08
3.88327e-05
1.75777e-08
3.88318e-05
2.06554e-08
3.88317e-05
2.15612e-08
3.88308e-05
2.32825e-08
3.88308e-05
2.34722e-08
3.88304e-05
2.48143e-08
3.88304e-05
2.5254e-08
3.88299e-05
2.59355e-08
3.88296e-05
2.53641e-08
3.88293e-05