/*--------------------------------*- C++ -*----------------------------------*\
| =========                 |                                                 |
| \\      /  F ield         | OpenFOAM: The Open Source CFD Toolbox           |
|  \\    /   O peration     | Version:  2312                                  |
|   \\  /    A nd           | Website:  www.openfoam.com                      |
|    \\/     M anipulation  |                                                 |
\*---------------------------------------------------------------------------*/
FoamFile
{
    version     2.0;
    format      ascii;
    arch        "LSB;label=32;scalar=64";
    class       volVectorField;
    location    "0.25";
    object      U;
}
// * * * * * * * * * * * * * * * * * * * * * * * * * * * * * * * * * * * * * //

dimensions      [0 1 -1 0 0 0 0];

internalField   nonuniform List<vector> 
5600
(
(0.972009 -0.000878605 0)
(1.02726 0.000773918 0)
(0.974513 -0.000428289 0)
(1.02469 0.000666169 0)
(0.977041 -0.00080327 0)
(1.02239 -5.53486e-05 0)
(0.979731 -0.000709861 0)
(1.01981 0.000378594 0)
(0.981613 0.000254645 0)
(1.01783 0.00143596 0)
(0.983502 0.00113895 0)
(1.01505 0.00121831 0)
(0.985312 0.000136022 0)
(1.01314 -0.00029565 0)
(0.986868 -0.00132934 0)
(1.01154 -0.0016572 0)
(0.988072 -0.00237671 0)
(1.01037 -0.00215633 0)
(0.988833 -0.00235195 0)
(1.00879 -0.00183625 0)
(0.9896 -0.00171339 0)
(1.00753 -0.0010389 0)
(0.990427 -0.000653616 0)
(1.00628 0.000138858 0)
(0.991228 0.000581622 0)
(1.00487 0.00131383 0)
(0.991697 0.00172742 0)
(1.0036 0.00231767 0)
(0.992083 0.00265003 0)
(1.00242 0.00310037 0)
(0.992363 0.00332219 0)
(1.00136 0.00362179 0)
(0.992624 0.00376664 0)
(1.00047 0.00400575 0)
(0.992841 0.00412205 0)
(0.999692 0.00430067 0)
(0.993078 0.00436481 0)
(0.999106 0.00448459 0)
(0.993424 0.00453019 0)
(0.998939 0.00464603 0)
(0.987608 -0.000899933 0)
(1.01083 0.000765864 0)
(0.990032 -0.000415187 0)
(1.00892 0.000651404 0)
(0.992228 -0.000793014 0)
(1.00711 -9.88081e-05 0)
(0.993927 -0.000655953 0)
(1.00523 0.000375268 0)
(0.995005 0.000269946 0)
(1.0042 0.00141142 0)
(0.99644 0.00125343 0)
(1.00289 0.00118406 0)
(0.997594 0.00018607 0)
(1.00203 -0.000318868 0)
(0.997941 -0.00129313 0)
(1.00111 -0.00165987 0)
(0.99771 -0.00237524 0)
(1.00051 -0.00209979 0)
(0.997089 -0.00227097 0)
(0.999522 -0.00179962 0)
(0.996768 -0.00166403 0)
(0.998899 -0.00102909 0)
(0.996661 -0.000593683 0)
(0.998432 0.000200622 0)
(0.996696 0.000685472 0)
(0.997847 0.00140964 0)
(0.996538 0.0018549 0)
(0.997428 0.00243123 0)
(0.996442 0.00280198 0)
(0.997068 0.00323607 0)
(0.996335 0.00351221 0)
(0.996777 0.00379717 0)
(0.9963 0.00401489 0)
(0.996587 0.00424105 0)
(0.996251 0.00442584 0)
(0.996398 0.00458832 0)
(0.996218 0.00471292 0)
(0.996343 0.0048269 0)
(0.99639 0.00493902 0)
(0.996721 0.00507165 0)
(0.997021 -0.000810558 0)
(1.00187 0.000653938 0)
(0.997767 -0.000322797 0)
(1.00148 0.000538732 0)
(0.998544 -0.000682713 0)
(1.00069 -0.000190193 0)
(0.99845 -0.000551601 0)
(0.999894 0.000284067 0)
(0.998519 0.000356969 0)
(0.999738 0.0012826 0)
(0.999341 0.00129824 0)
(1.00031 0.00107092 0)
(1.00002 0.000265318 0)
(1.00026 -0.000355821 0)
(0.999699 -0.00116518 0)
(0.999419 -0.00164659 0)
(0.998675 -0.00222137 0)
(0.998368 -0.00205126 0)
(0.997579 -0.0021035 0)
(0.997218 -0.00180019 0)
(0.9967 -0.00152481 0)
(0.996477 -0.00105208 0)
(0.99602 -0.000508142 0)
(0.996045 0.000159215 0)
(0.995868 0.000753876 0)
(0.995727 0.00138747 0)
(0.995638 0.00188424 0)
(0.995619 0.00239983 0)
(0.995607 0.0028129 0)
(0.995631 0.00321173 0)
(0.995665 0.0035434 0)
(0.995731 0.00382839 0)
(0.995811 0.00408687 0)
(0.995878 0.0042704 0)
(0.995917 0.00445251 0)
(0.995972 0.00457391 0)
(0.99604 0.00470274 0)
(0.99618 0.00479515 0)
(0.996391 0.00490317 0)
(0.996805 0.00499499 0)
(0.999546 -0.000800894 0)
(0.999765 0.000642156 0)
(0.999505 -0.000312503 0)
(1.00002 0.000520795 0)
(0.999745 -0.000649167 0)
(0.999521 -0.000171527 0)
(0.998989 -0.000497437 0)
(0.99894 0.000284463 0)
(0.998769 0.000367381 0)
(0.999004 0.00122525 0)
(0.999589 0.00125844 0)
(1.00016 0.00101376 0)
(1.00035 0.000267917 0)
(1.0003 -0.000344953 0)
(0.999972 -0.00108018 0)
(0.999421 -0.0015459 0)
(0.998689 -0.00208372 0)
(0.998003 -0.00193817 0)
(0.9974 -0.00194357 0)
(0.996711 -0.0016691 0)
(0.996178 -0.00138381 0)
(0.995744 -0.000931791 0)
(0.99521 -0.000399028 0)
(0.995093 0.000222262 0)
(0.994959 0.000808566 0)
(0.9948 0.00143582 0)
(0.994797 0.00191971 0)
(0.994774 0.00241643 0)
(0.99487 0.00282966 0)
(0.99491 0.00321173 0)
(0.995077 0.00355839 0)
(0.995181 0.00383854 0)
(0.995354 0.0040983 0)
(0.995471 0.00426804 0)
(0.995587 0.00443984 0)
(0.995712 0.00455774 0)
(0.995847 0.00468171 0)
(0.99607 0.00477701 0)
(0.996349 0.004877 0)
(0.996844 0.00496374 0)
(0.999936 -0.000729633 0)
(0.999495 0.000564941 0)
(0.999738 -0.000248141 0)
(0.999873 0.000438539 0)
(0.999877 -0.000552084 0)
(0.999407 -0.000213139 0)
(0.999034 -0.000408049 0)
(0.998837 0.000229302 0)
(0.998767 0.000426053 0)
(0.998946 0.00110394 0)
(0.999596 0.00121188 0)
(1.00017 0.000905956 0)
(1.00037 0.000291453 0)
(1.00033 -0.000331225 0)
(1.00001 -0.000973074 0)
(0.999469 -0.00142818 0)
(0.99874 -0.00187378 0)
(0.997975 -0.00179713 0)
(0.997378 -0.00173771 0)
(0.996658 -0.00153114 0)
(0.996074 -0.00120112 0)
(0.995623 -0.000802262 0)
(0.995052 -0.000275598 0)
(0.994889 0.000285175 0)
(0.99472 0.000844954 0)
(0.994565 0.00145101 0)
(0.994584 0.00191759 0)
(0.994574 0.00239646 0)
(0.994701 0.0028034 0)
(0.994756 0.00317436 0)
(0.994939 0.00350707 0)
(0.995063 0.00376436 0)
(0.995238 0.00400805 0)
(0.995374 0.0041703 0)
(0.995501 0.00433557 0)
(0.995655 0.0044527 0)
(0.995816 0.00457219 0)
(0.996071 0.00466388 0)
(0.99638 0.00475184 0)
(0.99691 0.0048266 0)
(0.999976 -0.000710039 0)
(0.999487 0.000543775 0)
(0.999759 -0.000233213 0)
(0.999865 0.000407805 0)
(0.999876 -0.000498775 0)
(0.999415 -0.000192333 0)
(0.999059 -0.000335064 0)
(0.998859 0.00021875 0)
(0.998806 0.000443308 0)
(0.998989 0.00101916 0)
(0.999583 0.00115376 0)
(1.00013 0.000832561 0)
(1.0003 0.000286169 0)
(1.00025 -0.000310707 0)
(0.999942 -0.000892403 0)
(0.999429 -0.00130107 0)
(0.998754 -0.00169805 0)
(0.998003 -0.00163934 0)
(0.997419 -0.00155696 0)
(0.996747 -0.00134851 0)
(0.996158 -0.00101324 0)
(0.995721 -0.000639023 0)
(0.995189 -0.000128928 0)
(0.995012 0.000394355 0)
(0.994828 0.000915094 0)
(0.994684 0.00148871 0)
(0.994709 0.00195166 0)
(0.994716 0.00240496 0)
(0.994845 0.00281287 0)
(0.994894 0.00315849 0)
(0.995052 0.00347684 0)
(0.995166 0.00371367 0)
(0.995317 0.00394408 0)
(0.995448 0.00410426 0)
(0.995563 0.00426193 0)
(0.995715 0.00437644 0)
(0.995872 0.00448604 0)
(0.996123 0.00456828 0)
(0.996438 0.00463848 0)
(0.996968 0.00469215 0)
(0.999979 -0.000643415 0)
(0.999508 0.000471408 0)
(0.99976 -0.000171426 0)
(0.999853 0.000334415 0)
(0.999853 -0.000410358 0)
(0.999429 -0.000223968 0)
(0.999096 -0.000253261 0)
(0.998912 0.00018081 0)
(0.998862 0.000481575 0)
(0.999037 0.000921284 0)
(0.999568 0.00108234 0)
(1.00007 0.000756984 0)
(1.00021 0.000275489 0)
(1.00015 -0.000268478 0)
(0.999847 -0.000791711 0)
(0.999353 -0.00117173 0)
(0.998739 -0.00148917 0)
(0.998038 -0.00146429 0)
(0.997461 -0.00134717 0)
(0.996834 -0.0011739 0)
(0.996286 -0.000835283 0)
(0.995881 -0.00047703 0)
(0.9954 -3.90244e-06 0)
(0.99523 0.000494938 0)
(0.995056 0.000984784 0)
(0.994916 0.00152258 0)
(0.99493 0.00197128 0)
(0.994945 0.00239731 0)
(0.995062 0.00278238 0)
(0.995105 0.0031072 0)
(0.995236 0.00340557 0)
(0.995338 0.00363131 0)
(0.995469 0.00385248 0)
(0.995581 0.00400925 0)
(0.995681 0.00415989 0)
(0.995817 0.0042679 0)
(0.995967 0.0043633 0)
(0.996198 0.00443218 0)
(0.9965 0.00448354 0)
(0.997015 0.00451854 0)
(0.999981 -0.000611518 0)
(0.999531 0.000436649 0)
(0.99976 -0.000144812 0)
(0.99985 0.000292279 0)
(0.999833 -0.000342732 0)
(0.999447 -0.000209763 0)
(0.999126 -0.000175539 0)
(0.998965 0.000166387 0)
(0.998921 0.000494662 0)
(0.999089 0.000844207 0)
(0.999556 0.00101549 0)
(0.999994 0.00069726 0)
(1.00011 0.000271375 0)
(1.00004 -0.000235767 0)
(0.999748 -0.000704563 0)
(0.99928 -0.00104628 0)
(0.998715 -0.00130516 0)
(0.998069 -0.00129742 0)
(0.997521 -0.00116476 0)
(0.996947 -0.000990171 0)
(0.996436 -0.000647346 0)
(0.996056 -0.000311099 0)
(0.995623 0.000138296 0)
(0.995472 0.000611198 0)
(0.995316 0.00108188 0)
(0.995191 0.00156615 0)
(0.9952 0.00201627 0)
(0.995216 0.00240735 0)
(0.995322 0.0027766 0)
(0.99535 0.00307943 0)
(0.995456 0.00337285 0)
(0.995541 0.00359618 0)
(0.99565 0.00381548 0)
(0.99574 0.00397421 0)
(0.995822 0.00412168 0)
(0.99593 0.00421486 0)
(0.996058 0.00428373 0)
(0.996263 0.00431002 0)
(0.996547 0.00431672 0)
(0.997035 0.00430662 0)
(0.999982 -0.000548072 0)
(0.999557 0.000367634 0)
(0.99976 -8.47129e-05 0)
(0.999839 0.000228462 0)
(0.999812 -0.000266353 0)
(0.999466 -0.000228497 0)
(0.999164 -0.000107238 0)
(0.999024 0.000144079 0)
(0.99898 0.000513416 0)
(0.999134 0.000765786 0)
(0.999544 0.00094856 0)
(0.999929 0.000623265 0)
(1.00002 0.00028437 0)
(0.999933 -0.000205821 0)
(0.99966 -0.00058373 0)
(0.99921 -0.000922306 0)
(0.998692 -0.00109536 0)
(0.998106 -0.00112115 0)
(0.997583 -0.000948059 0)
(0.997048 -0.000810038 0)
(0.996578 -0.00046315 0)
(0.996237 -0.000158031 0)
(0.99585 0.000286176 0)
(0.995722 0.00071154 0)
(0.995581 0.00117847 0)
(0.995469 0.00160658 0)
(0.995466 0.00204273 0)
(0.99547 0.00238624 0)
(0.995563 0.00273632 0)
(0.995587 0.0030103 0)
(0.995682 0.0033043 0)
(0.995752 0.00352144 0)
(0.995847 0.00376151 0)
(0.995912 0.00394256 0)
(0.995958 0.00413309 0)
(0.996016 0.00425814 0)
(0.996089 0.00436993 0)
(0.996237 0.00441104 0)
(0.996487 0.00439537 0)
(0.997002 0.0042198 0)
(0.99999 -0.000506165 0)
(0.999578 0.000322438 0)
(0.999766 -4.95869e-05 0)
(0.999833 0.000182813 0)
(0.999799 -0.000193848 0)
(0.999481 -0.000213386 0)
(0.999203 -4.07476e-05 0)
(0.999076 0.000145463 0)
(0.999045 0.000501161 0)
(0.999177 0.000713002 0)
(0.999538 0.000879686 0)
(0.999858 0.000578432 0)
(0.999931 0.000282727 0)
(0.999828 -0.000162607 0)
(0.999571 -0.000493308 0)
(0.999147 -0.000793531 0)
(0.998677 -0.000918324 0)
(0.998141 -0.000947221 0)
(0.997659 -0.00076794 0)
(0.997166 -0.000624925 0)
(0.996743 -0.00028349 0)
(0.996427 1.03862e-05 0)
(0.996083 0.000439257 0)
(0.995976 0.000827985 0)
(0.995858 0.0012789 0)
(0.995752 0.0016622 0)
(0.995747 0.00206505 0)
(0.995741 0.00238782 0)
(0.995833 0.00271225 0)
(0.995852 0.00297548 0)
(0.995942 0.00324511 0)
(0.996012 0.00345416 0)
(0.996116 0.00366996 0)
(0.996186 0.00383227 0)
(0.996229 0.00399852 0)
(0.996263 0.00411437 0)
(0.996291 0.00422445 0)
(0.996305 0.00427188 0)
(0.996204 0.00426606 0)
(0.995865 0.00410102 0)
(0.999992 -0.000445804 0)
(0.999609 0.000257435 0)
(0.999767 7.61162e-06 0)
(0.999826 0.00013191 0)
(0.999783 -0.00013464 0)
(0.999503 -0.000207735 0)
(0.999246 -5.76615e-06 0)
(0.99913 0.000172785 0)
(0.999104 0.000466987 0)
(0.999217 0.000683844 0)
(0.999528 0.000783468 0)
(0.9998 0.000557022 0)
(0.999851 0.000263053 0)
(0.999737 -8.85995e-05 0)
(0.999497 -0.000406456 0)
(0.999096 -0.00063221 0)
(0.998666 -0.000746461 0)
(0.998186 -0.000740893 0)
(0.997737 -0.000582661 0)
(0.99728 -0.000413427 0)
(0.996898 -0.000116926 0)
(0.996623 0.00018489 0)
(0.996316 0.000576724 0)
(0.996233 0.000949957 0)
(0.996126 0.00134926 0)
(0.996021 0.00171613 0)
(0.996015 0.00206355 0)
(0.995997 0.00238062 0)
(0.996079 0.00265785 0)
(0.99609 0.00290981 0)
(0.996169 0.00312837 0)
(0.996218 0.00330454 0)
(0.996292 0.00345055 0)
(0.996328 0.00356034 0)
(0.996342 0.00365808 0)
(0.996347 0.0037338 0)
(0.996335 0.00380082 0)
(0.996306 0.00383639 0)
(0.996174 0.00385781 0)
(0.995866 0.00385603 0)
(0.999993 -0.000397464 0)
(0.999643 0.000207246 0)
(0.999769 4.32071e-05 0)
(0.999828 9.57909e-05 0)
(0.999771 -7.50178e-05 0)
(0.999524 -0.000171359 0)
(0.99929 1.99607e-05 0)
(0.999183 0.000200744 0)
(0.999163 0.000445231 0)
(0.999259 0.000647188 0)
(0.99952 0.000716758 0)
(0.999742 0.000534786 0)
(0.999772 0.000259829 0)
(0.99965 -3.06401e-05 0)
(0.99942 -0.000315633 0)
(0.999054 -0.000499267 0)
(0.998663 -0.000578205 0)
(0.998234 -0.000562525 0)
(0.997826 -0.000408969 0)
(0.997412 -0.000223376 0)
(0.99707 5.79838e-05 0)
(0.996831 0.000349084 0)
(0.996555 0.000718046 0)
(0.996487 0.00106061 0)
(0.996401 0.00141526 0)
(0.996299 0.00177036 0)
(0.996294 0.00207145 0)
(0.996269 0.00237274 0)
(0.996341 0.00260934 0)
(0.996339 0.00283395 0)
(0.996382 0.00300648 0)
(0.996401 0.0031543 0)
(0.99645 0.00327911 0)
(0.996481 0.00338557 0)
(0.996496 0.00349191 0)
(0.996503 0.00358076 0)
(0.996479 0.00366896 0)
(0.996424 0.00372884 0)
(0.996254 0.00378249 0)
(0.995902 0.00380716 0)
(0.999995 -0.000341201 0)
(0.999679 0.000149278 0)
(0.99977 9.22379e-05 0)
(0.999827 6.47841e-05 0)
(0.999764 -4.35058e-05 0)
(0.999544 -0.000123128 0)
(0.999337 2.87847e-05 0)
(0.999236 0.00022329 0)
(0.999218 0.000427411 0)
(0.999297 0.000604481 0)
(0.999514 0.000655557 0)
(0.999694 0.000504492 0)
(0.999706 0.000269415 0)
(0.999577 2.81225e-05 0)
(0.999362 -0.000207857 0)
(0.999027 -0.000357161 0)
(0.998669 -0.000400036 0)
(0.998289 -0.000368591 0)
(0.997923 -0.000222813 0)
(0.997544 -2.64294e-05 0)
(0.997234 0.000232755 0)
(0.997037 0.000499245 0)
(0.99679 0.000843555 0)
(0.996733 0.00115866 0)
(0.996672 0.00146952 0)
(0.996563 0.00180062 0)
(0.996551 0.00205835 0)
(0.996512 0.00232209 0)
(0.996556 0.00252321 0)
(0.996533 0.00271161 0)
(0.996557 0.00286621 0)
(0.996576 0.00300297 0)
(0.996621 0.00313453 0)
(0.996656 0.003243 0)
(0.996664 0.00335595 0)
(0.996663 0.00343911 0)
(0.996619 0.00352607 0)
(0.996544 0.0035809 0)
(0.996352 0.0036405 0)
(0.995989 0.00367507 0)
(0.999996 -0.000291278 0)
(0.999719 0.000100831 0)
(0.999776 0.000113229 0)
(0.999827 6.09391e-05 0)
(0.999762 -1.70335e-05 0)
(0.999564 -6.63848e-05 0)
(0.999384 4.96187e-05 0)
(0.999293 0.000239989 0)
(0.999274 0.000415365 0)
(0.999336 0.000571885 0)
(0.999511 0.000608989 0)
(0.999648 0.000488062 0)
(0.999642 0.00028324 0)
(0.99951 8.72982e-05 0)
(0.999302 -0.000105398 0)
(0.999003 -0.000228413 0)
(0.998686 -0.000241083 0)
(0.998346 -0.000188391 0)
(0.998027 -5.32732e-05 0)
(0.99769 0.000144132 0)
(0.997406 0.000398728 0)
(0.997248 0.000641975 0)
(0.997032 0.000953883 0)
(0.996975 0.00125002 0)
(0.996939 0.00151338 0)
(0.996827 0.00181909 0)
(0.996802 0.0020444 0)
(0.996756 0.00227324 0)
(0.996785 0.00245337 0)
(0.996762 0.00262919 0)
(0.996772 0.00278956 0)
(0.996788 0.00292306 0)
(0.996822 0.00305539 0)
(0.996852 0.00315662 0)
(0.996849 0.00326651 0)
(0.996835 0.00334463 0)
(0.996777 0.00342989 0)
(0.996688 0.00348647 0)
(0.996488 0.00355092 0)
(0.996121 0.00359528 0)
(0.999997 -0.000242139 0)
(0.999758 5.71441e-05 0)
(0.999784 0.000120087 0)
(0.999827 7.53285e-05 0)
(0.999766 3.14636e-06 0)
(0.999586 -1.84159e-05 0)
(0.999431 7.82752e-05 0)
(0.999347 0.00024538 0)
(0.999326 0.00040619 0)
(0.99937 0.000538046 0)
(0.99951 0.000566035 0)
(0.999613 0.00047036 0)
(0.999593 0.000305301 0)
(0.999458 0.00014815 0)
(0.999263 2.86907e-06 0)
(0.998998 -8.70794e-05 0)
(0.998717 -7.97875e-05 0)
(0.998414 -4.28835e-06 0)
(0.998134 0.00012709 0)
(0.99784 0.000308572 0)
(0.997578 0.000556864 0)
(0.997447 0.000776467 0)
(0.997267 0.00105028 0)
(0.997206 0.0013283 0)
(0.997189 0.00155225 0)
(0.997079 0.00182551 0)
(0.997031 0.00203152 0)
(0.996976 0.00223063 0)
(0.996995 0.00239519 0)
(0.996979 0.00255068 0)
(0.996978 0.00270534 0)
(0.996989 0.00282893 0)
(0.997011 0.00295524 0)
(0.997038 0.00304806 0)
(0.997029 0.00315116 0)
(0.997009 0.00322627 0)
(0.996942 0.00330902 0)
(0.996845 0.00336802 0)
(0.996642 0.00343228 0)
(0.99627 0.00348035 0)
(0.999998 -0.000196347 0)
(0.999797 1.86798e-05 0)
(0.9998 0.00012234 0)
(0.999829 9.5733e-05 0)
(0.99977 2.67872e-05 0)
(0.999609 2.33982e-05 0)
(0.999475 0.000111238 0)
(0.999403 0.000253509 0)
(0.99938 0.000398186 0)
(0.999407 0.000512575 0)
(0.999513 0.000538447 0)
(0.999583 0.000464309 0)
(0.999548 0.00033345 0)
(0.999415 0.000209761 0)
(0.999228 0.000106142 0)
(0.998993 4.343e-05 0)
(0.998758 6.66897e-05 0)
(0.998489 0.000153304 0)
(0.998242 0.000289504 0)
(0.997994 0.000455118 0)
(0.997756 0.000691573 0)
(0.997644 0.000898379 0)
(0.997502 0.00113502 0)
(0.997435 0.001396 0)
(0.997431 0.001591 0)
(0.997333 0.00182878 0)
(0.997268 0.0020225 0)
(0.997207 0.00220311 0)
(0.997215 0.002359 0)
(0.997211 0.00249764 0)
(0.997206 0.00264481 0)
(0.99721 0.00276194 0)
(0.997221 0.00288256 0)
(0.99724 0.00297153 0)
(0.997227 0.00306745 0)
(0.9972 0.00314174 0)
(0.997128 0.00322005 0)
(0.99702 0.00328131 0)
(0.996813 0.00334217 0)
(0.996435 0.00339234 0)
(1 -0.00015645 0)
(0.999835 -8.63056e-06 0)
(0.99982 0.000119419 0)
(0.999832 0.000112458 0)
(0.999778 5.53097e-05 0)
(0.999635 5.79738e-05 0)
(0.999518 0.000143928 0)
(0.999454 0.000266505 0)
(0.99943 0.000389205 0)
(0.99944 0.000489752 0)
(0.999518 0.000513595 0)
(0.999563 0.000460793 0)
(0.999518 0.000365749 0)
(0.999387 0.000274938 0)
(0.999214 0.000207697 0)
(0.999008 0.000176682 0)
(0.998808 0.000215442 0)
(0.998576 0.000306915 0)
(0.998357 0.000447891 0)
(0.998147 0.000604182 0)
(0.997936 0.000817212 0)
(0.997832 0.00101499 0)
(0.997726 0.00121492 0)
(0.997657 0.00145523 0)
(0.997655 0.00163214 0)
(0.997573 0.00183438 0)
(0.997497 0.0020134 0)
(0.997428 0.00217715 0)
(0.997422 0.00232371 0)
(0.997426 0.00244724 0)
(0.997422 0.00258043 0)
(0.997422 0.00268967 0)
(0.997422 0.00280104 0)
(0.997433 0.00288676 0)
(0.997419 0.00297401 0)
(0.997388 0.00304611 0)
(0.997314 0.003118 0)
(0.997199 0.00317947 0)
(0.996989 0.00323648 0)
(0.996604 0.00328738 0)
(1 -0.000120034 0)
(0.99987 -2.9365e-05 0)
(0.999845 0.000112545 0)
(0.999838 0.000128843 0)
(0.999785 8.8761e-05 0)
(0.999661 9.17566e-05 0)
(0.999562 0.000172173 0)
(0.999505 0.000281401 0)
(0.999479 0.000386105 0)
(0.999476 0.000473757 0)
(0.999528 0.000500948 0)
(0.99955 0.000468425 0)
(0.999495 0.000402944 0)
(0.999369 0.000341801 0)
(0.999206 0.000306431 0)
(0.999026 0.000294969 0)
(0.998864 0.000347364 0)
(0.998667 0.000445779 0)
(0.998476 0.000581475 0)
(0.998299 0.000733437 0)
(0.998114 0.000924267 0)
(0.998017 0.00111543 0)
(0.997943 0.00128686 0)
(0.997882 0.00150122 0)
(0.997873 0.00166872 0)
(0.997808 0.00184242 0)
(0.99773 0.00200753 0)
(0.997658 0.00215642 0)
(0.997641 0.00229626 0)
(0.997648 0.00240946 0)
(0.997648 0.0025298 0)
(0.997647 0.00263201 0)
(0.99764 0.00273508 0)
(0.99764 0.00281893 0)
(0.997624 0.00289922 0)
(0.997588 0.0029692 0)
(0.997514 0.0030353 0)
(0.997392 0.00309585 0)
(0.997179 0.00314932 0)
(0.996787 0.00319978 0)
(1 -9.18224e-05 0)
(0.999902 -2.91371e-05 0)
(0.999872 9.73071e-05 0)
(0.999848 0.000136705 0)
(0.999794 0.000120602 0)
(0.999686 0.000128137 0)
(0.999603 0.000199432 0)
(0.999551 0.000296725 0)
(0.999524 0.000386966 0)
(0.999509 0.000462798 0)
(0.99954 0.000491952 0)
(0.999545 0.00047686 0)
(0.999485 0.00044323 0)
(0.999365 0.00040752 0)
(0.999215 0.00040112 0)
(0.99906 0.000414093 0)
(0.998932 0.000471332 0)
(0.998765 0.000580935 0)
(0.998598 0.00071067 0)
(0.998451 0.000854926 0)
(0.998294 0.00102901 0)
(0.998198 0.00120855 0)
(0.998144 0.00136195 0)
(0.998099 0.00154351 0)
(0.998084 0.00170301 0)
(0.99803 0.00185534 0)
(0.997953 0.00200569 0)
(0.99788 0.00213898 0)
(0.997851 0.00226751 0)
(0.997855 0.00237212 0)
(0.997859 0.00247876 0)
(0.997859 0.00257284 0)
(0.99785 0.00266563 0)
(0.997841 0.00274582 0)
(0.997821 0.00281938 0)
(0.997782 0.00288598 0)
(0.99771 0.00294648 0)
(0.997584 0.00300395 0)
(0.997368 0.00305384 0)
(0.996971 0.00310192 0)
(1 -6.91709e-05 0)
(0.999927 -1.85496e-05 0)
(0.999896 7.99571e-05 0)
(0.999861 0.000141224 0)
(0.999804 0.000149989 0)
(0.999709 0.0001651 0)
(0.999641 0.000225124 0)
(0.999595 0.000311223 0)
(0.999566 0.000392465 0)
(0.999541 0.000460264 0)
(0.999557 0.000492999 0)
(0.99955 0.000494266 0)
(0.999482 0.000487174 0)
(0.999368 0.00047445 0)
(0.999232 0.000490353 0)
(0.999094 0.0005253 0)
(0.999002 0.000579853 0)
(0.998868 0.000694098 0)
(0.998719 0.000824461 0)
(0.9986 0.000958206 0)
(0.998469 0.00111617 0)
(0.998377 0.00128113 0)
(0.998334 0.00142671 0)
(0.998307 0.00157859 0)
(0.998294 0.00172713 0)
(0.998247 0.00186253 0)
(0.998174 0.00199955 0)
(0.998101 0.00212094 0)
(0.998066 0.0022384 0)
(0.998065 0.00233735 0)
(0.998075 0.00243285 0)
(0.998076 0.00252071 0)
(0.998068 0.00260446 0)
(0.998052 0.00268148 0)
(0.998029 0.0027495 0)
(0.997985 0.00281311 0)
(0.997912 0.00286865 0)
(0.997783 0.00292281 0)
(0.997565 0.00296935 0)
(0.997163 0.00301501 0)
(1 -5.11427e-05 0)
(0.999945 -7.13489e-06 0)
(0.999918 7.35101e-05 0)
(0.999878 0.000141586 0)
(0.999817 0.000173014 0)
(0.99973 0.000201032 0)
(0.999674 0.000254414 0)
(0.999634 0.000328088 0)
(0.999603 0.000400246 0)
(0.999571 0.000462858 0)
(0.999573 0.000500002 0)
(0.999559 0.000511947 0)
(0.999491 0.000528648 0)
(0.999384 0.000541629 0)
(0.999265 0.00057013 0)
(0.999139 0.000629351 0)
(0.999076 0.000687258 0)
(0.998979 0.000793282 0)
(0.998845 0.000930344 0)
(0.998744 0.00105477 0)
(0.99864 0.0011984 0)
(0.998556 0.00134654 0)
(0.998515 0.00148597 0)
(0.9985 0.00161698 0)
(0.998493 0.00174804 0)
(0.998454 0.00186945 0)
(0.998386 0.00199168 0)
(0.998313 0.0021049 0)
(0.998273 0.00220991 0)
(0.998266 0.00230335 0)
(0.998277 0.00238739 0)
(0.99828 0.00246859 0)
(0.998275 0.00254253 0)
(0.998255 0.00261468 0)
(0.998228 0.00267669 0)
(0.99818 0.00273657 0)
(0.998106 0.00278754 0)
(0.997976 0.00283794 0)
(0.997757 0.00288115 0)
(0.997352 0.00292373 0)
(1 -3.7537e-05 0)
(0.999959 5.09862e-06 0)
(0.999936 7.94328e-05 0)
(0.999894 0.000140217 0)
(0.999832 0.000188643 0)
(0.99975 0.000231128 0)
(0.999703 0.000283114 0)
(0.999668 0.000346452 0)
(0.999639 0.000411821 0)
(0.999601 0.000471469 0)
(0.999593 0.000514092 0)
(0.999576 0.000537681 0)
(0.99951 0.000571142 0)
(0.999405 0.000607022 0)
(0.999304 0.000644987 0)
(0.999191 0.000718915 0)
(0.999145 0.000786661 0)
(0.99909 0.000877445 0)
(0.998975 0.00101407 0)
(0.998884 0.00113564 0)
(0.9988 0.00126612 0)
(0.998729 0.00139687 0)
(0.998692 0.00152727 0)
(0.998681 0.00164612 0)
(0.998682 0.00175986 0)
(0.998652 0.00187044 0)
(0.998594 0.00197756 0)
(0.998522 0.0020837 0)
(0.99848 0.0021778 0)
(0.998466 0.00226662 0)
(0.998477 0.00234215 0)
(0.998483 0.00241755 0)
(0.998482 0.00248389 0)
(0.998462 0.00255094 0)
(0.998432 0.00260837 0)
(0.99838 0.00266459 0)
(0.998303 0.00271228 0)
(0.998172 0.00275902 0)
(0.997951 0.00279941 0)
(0.997546 0.00283876 0)
(1.00001 -2.68207e-05 0)
(0.999969 1.62649e-05 0)
(0.999949 8.84076e-05 0)
(0.999909 0.000143841 0)
(0.999851 0.000200863 0)
(0.999772 0.000256306 0)
(0.999729 0.0003116 0)
(0.999698 0.000369082 0)
(0.999669 0.000427775 0)
(0.999629 0.000483735 0)
(0.999615 0.000531659 0)
(0.999598 0.000565839 0)
(0.999539 0.000609043 0)
(0.999438 0.000666184 0)
(0.999352 0.000716486 0)
(0.999257 0.000793839 0)
(0.999218 0.0008768 0)
(0.999198 0.000956883 0)
(0.999111 0.00108324 0)
(0.999025 0.00120528 0)
(0.998954 0.00132549 0)
(0.998895 0.00144311 0)
(0.998864 0.00155902 0)
(0.998852 0.00167028 0)
(0.998859 0.00176946 0)
(0.998837 0.00186973 0)
(0.998791 0.00196248 0)
(0.998723 0.00206023 0)
(0.998678 0.00214528 0)
(0.998658 0.00222828 0)
(0.998667 0.00229713 0)
(0.998675 0.00236561 0)
(0.998677 0.00242547 0)
(0.998659 0.00248567 0)
(0.998627 0.00253873 0)
(0.998573 0.00258978 0)
(0.998493 0.00263467 0)
(0.998361 0.0026769 0)
(0.998138 0.00271497 0)
(0.997732 0.00275034 0)
(1.00001 -1.92685e-05 0)
(0.999977 2.73945e-05 0)
(0.999958 9.91848e-05 0)
(0.999922 0.000155726 0)
(0.99987 0.000211575 0)
(0.999795 0.000274216 0)
(0.999754 0.000334847 0)
(0.999725 0.000391747 0)
(0.999698 0.000447933 0)
(0.999658 0.000501533 0)
(0.99964 0.000552492 0)
(0.999624 0.000597059 0)
(0.999576 0.000648325 0)
(0.999482 0.000719045 0)
(0.999403 0.000782511 0)
(0.999327 0.000857125 0)
(0.999294 0.00094966 0)
(0.999297 0.00102737 0)
(0.999243 0.00113667 0)
(0.999167 0.00125692 0)
(0.999101 0.00136908 0)
(0.999048 0.00147792 0)
(0.999027 0.00157848 0)
(0.999016 0.00168118 0)
(0.999026 0.00176931 0)
(0.999011 0.00185947 0)
(0.998978 0.00194175 0)
(0.998919 0.00202958 0)
(0.998874 0.00210828 0)
(0.998849 0.00218423 0)
(0.998853 0.00224914 0)
(0.998861 0.00231062 0)
(0.998866 0.00236615 0)
(0.998851 0.00241942 0)
(0.99882 0.00246902 0)
(0.998765 0.00251487 0)
(0.998682 0.00255754 0)
(0.998549 0.00259569 0)
(0.998323 0.00263178 0)
(0.997917 0.00266362 0)
(1.00001 -1.35147e-05 0)
(0.999983 3.74616e-05 0)
(0.999966 0.000109822 0)
(0.999933 0.000170504 0)
(0.999888 0.000225951 0)
(0.999819 0.000289194 0)
(0.99978 0.000354166 0)
(0.999751 0.00041425 0)
(0.999725 0.000471123 0)
(0.999685 0.000523741 0)
(0.999668 0.000574955 0)
(0.999655 0.000627292 0)
(0.99962 0.000685194 0)
(0.999536 0.00076218 0)
(0.999462 0.000839384 0)
(0.999403 0.000914315 0)
(0.999379 0.00100655 0)
(0.999393 0.00108686 0)
(0.999371 0.00118131 0)
(0.99931 0.00129489 0)
(0.999247 0.00139993 0)
(0.999195 0.00150279 0)
(0.99918 0.0015923 0)
(0.999172 0.00168363 0)
(0.999183 0.00176366 0)
(0.999174 0.00184365 0)
(0.999152 0.00191819 0)
(0.999103 0.00199489 0)
(0.999061 0.00206775 0)
(0.999034 0.002136 0)
(0.999031 0.0021976 0)
(0.999039 0.00225251 0)
(0.999043 0.00230411 0)
(0.999033 0.00235083 0)
(0.999002 0.00239659 0)
(0.998949 0.00243734 0)
(0.998863 0.00247716 0)
(0.998729 0.00251153 0)
(0.998501 0.00254522 0)
(0.998094 0.00257394 0)
(1.00001 -9.69031e-06 0)
(0.999987 4.64429e-05 0)
(0.999973 0.00012123 0)
(0.999943 0.000185524 0)
(0.999905 0.0002433 0)
(0.999843 0.00030319 0)
(0.999807 0.000369003 0)
(0.999779 0.000433445 0)
(0.999752 0.000494344 0)
(0.999712 0.00054932 0)
(0.999698 0.000600783 0)
(0.999691 0.000656803 0)
(0.999669 0.000719733 0)
(0.999599 0.000799169 0)
(0.999528 0.000886062 0)
(0.999479 0.00096325 0)
(0.999465 0.00104945 0)
(0.999486 0.00113166 0)
(0.999491 0.00121502 0)
(0.999449 0.00131801 0)
(0.999391 0.00141574 0)
(0.999337 0.00151275 0)
(0.999322 0.00159544 0)
(0.999317 0.00167466 0)
(0.99933 0.00174747 0)
(0.999329 0.00181713 0)
(0.999315 0.00188577 0)
(0.999279 0.00195243 0)
(0.999242 0.00201979 0)
(0.999214 0.00208091 0)
(0.999206 0.002139 0)
(0.99921 0.00218855 0)
(0.999213 0.00223615 0)
(0.999206 0.00227764 0)
(0.999177 0.00231906 0)
(0.999126 0.00235558 0)
(0.99904 0.00239181 0)
(0.998904 0.00242317 0)
(0.998675 0.00245381 0)
(0.998267 0.00248013 0)
(1.00001 -6.52591e-06 0)
(0.999989 5.46609e-05 0)
(0.999978 0.000132915 0)
(0.999952 0.00020131 0)
(0.99992 0.000261723 0)
(0.999865 0.000319519 0)
(0.999836 0.000382737 0)
(0.99981 0.000449668 0)
(0.999782 0.000515405 0)
(0.99974 0.000575129 0)
(0.999729 0.000627904 0)
(0.99973 0.000684372 0)
(0.999722 0.000749275 0)
(0.999669 0.000828402 0)
(0.999604 0.000918002 0)
(0.999558 0.00100039 0)
(0.999553 0.00108269 0)
(0.999579 0.00116152 0)
(0.999603 0.00123772 0)
(0.999582 0.00132911 0)
(0.999534 0.00141974 0)
(0.999479 0.00151123 0)
(0.999456 0.0015899 0)
(0.999451 0.00166039 0)
(0.999466 0.00172621 0)
(0.999473 0.0017874 0)
(0.999468 0.00185006 0)
(0.999444 0.00190919 0)
(0.999413 0.00197072 0)
(0.999387 0.00202621 0)
(0.999375 0.00208028 0)
(0.999373 0.00212612 0)
(0.999374 0.00216996 0)
(0.999366 0.00220782 0)
(0.99934 0.00224516 0)
(0.999291 0.00227851 0)
(0.999206 0.00231127 0)
(0.999069 0.00234042 0)
(0.998838 0.00236833 0)
(0.998428 0.00239303 0)
(1.00001 -5.10044e-06 0)
(0.999991 6.0382e-05 0)
(0.999982 0.000143323 0)
(0.999962 0.000215412 0)
(0.999934 0.000278346 0)
(0.999885 0.000337196 0)
(0.999862 0.000397389 0)
(0.999842 0.00046284 0)
(0.999817 0.00053186 0)
(0.999773 0.000599038 0)
(0.999761 0.000656038 0)
(0.99977 0.000711215 0)
(0.999777 0.000775057 0)
(0.999741 0.000851402 0)
(0.999686 0.00093892 0)
(0.999643 0.00102438 0)
(0.999639 0.00110286 0)
(0.999668 0.00117473 0)
(0.999708 0.00124251 0)
(0.999708 0.00131964 0)
(0.999673 0.0014009 0)
(0.999621 0.00148398 0)
(0.999588 0.00155855 0)
(0.99958 0.00162216 0)
(0.999594 0.00168079 0)
(0.999609 0.00173368 0)
(0.999614 0.0017882 0)
(0.999602 0.00183987 0)
(0.99958 0.0018939 0)
(0.999557 0.00194379 0)
(0.999543 0.00199237 0)
(0.999536 0.00203471 0)
(0.999533 0.00207416 0)
(0.999524 0.00210886 0)
(0.9995 0.00214177 0)
(0.999453 0.00217196 0)
(0.999371 0.00220074 0)
(0.999234 0.00222743 0)
(0.999003 0.00225231 0)
(0.998591 0.00227531 0)
(1.00001 -2.72098e-06 0)
(0.999993 6.71144e-05 0)
(0.999987 0.000156242 0)
(0.999971 0.000228376 0)
(0.99995 0.000291488 0)
(0.999905 0.000354233 0)
(0.999888 0.000414913 0)
(0.999876 0.000475618 0)
(0.999857 0.000543082 0)
(0.999812 0.000616271 0)
(0.999797 0.000680817 0)
(0.999811 0.000735241 0)
(0.999832 0.000795416 0)
(0.999814 0.00086821 0)
(0.999773 0.000953392 0)
(0.999731 0.00104023 0)
(0.999723 0.0011207 0)
(0.999749 0.00119209 0)
(0.999798 0.00125503 0)
(0.999817 0.00132203 0)
(0.999801 0.0013955 0)
(0.999757 0.0014729 0)
(0.999716 0.00154589 0)
(0.999698 0.00160858 0)
(0.999708 0.00166411 0)
(0.999726 0.0017129 0)
(0.999741 0.00176129 0)
(0.99974 0.00180766 0)
(0.999729 0.00185551 0)
(0.999712 0.00190087 0)
(0.999698 0.00194483 0)
(0.999687 0.0019842 0)
(0.999679 0.00202031 0)
(0.999667 0.00205224 0)
(0.999643 0.00208148 0)
(0.999597 0.00210812 0)
(0.999518 0.00213278 0)
(0.999383 0.00215571 0)
(0.999153 0.00217672 0)
(0.998741 0.00219628 0)
(1.00001 -3.85765e-06 0)
(0.999994 6.99732e-05 0)
(0.999989 0.000168276 0)
(0.999976 0.000241388 0)
(0.999963 0.000302095 0)
(0.999925 0.000368529 0)
(0.999911 0.000431937 0)
(0.999904 0.000490307 0)
(0.999896 0.00055277 0)
(0.999858 0.000626977 0)
(0.999837 0.000698831 0)
(0.99985 0.000754523 0)
(0.999885 0.000806185 0)
(0.999888 0.000868421 0)
(0.999865 0.000941517 0)
(0.999831 0.00101927 0)
(0.999822 0.00109141 0)
(0.99984 0.00115523 0)
(0.99989 0.00120831 0)
(0.999927 0.00125889 0)
(0.999933 0.00131621 0)
(0.999903 0.00137967 0)
(0.999862 0.00144486 0)
(0.999834 0.00150564 0)
(0.999835 0.00155793 0)
(0.999851 0.00160378 0)
(0.999871 0.00164583 0)
(0.99988 0.00168718 0)
(0.99988 0.00172873 0)
(0.99987 0.00177026 0)
(0.999857 0.00181089 0)
(0.999843 0.00184963 0)
(0.99983 0.00188609 0)
(0.999812 0.00192006 0)
(0.999783 0.00195178 0)
(0.999733 0.00198152 0)