/*--------------------------------*- C++ -*----------------------------------*\
| =========                 |                                                 |
| \\      /  F ield         | OpenFOAM: The Open Source CFD Toolbox           |
|  \\    /   O peration     | Version:  2312                                  |
|   \\  /    A nd           | Website:  www.openfoam.com                      |
|    \\/     M anipulation  |                                                 |
\*---------------------------------------------------------------------------*/
FoamFile
{
    version     2.0;
    format      ascii;
    arch        "LSB;label=32;scalar=64";
    class       volScalarField;
    location    "0.85";
    object      p;
}
// * * * * * * * * * * * * * * * * * * * * * * * * * * * * * * * * * * * * * //

dimensions      [0 2 -2 0 0 0 0];

internalField   nonuniform List<scalar> 
5600
(
-5.09595e-10
0.000472606
0.00030329
0.00044345
0.000369283
0.000527064
0.000508844
0.000651426
0.000671441
0.000807018
0.000864461
0.000995349
0.00108056
0.00120805
0.00131732
0.001452
0.00157848
0.00171852
0.00186079
0.0020132
0.00217247
0.00234357
0.00252224
0.00271294
0.00290897
0.00311727
0.00333104
0.00355681
0.00378896
0.00403563
0.00429379
0.00457096
0.00486194
0.00516386
0.00546451
0.00575436
0.00604057
0.00632133
0.00653364
0.00650279
2.61936e-06
0.000469654
0.000305177
0.000440611
0.000371822
0.000523419
0.000511454
0.00064726
0.000674091
0.000802337
0.000866676
0.000990504
0.00108143
0.00120313
0.0013166
0.0014467
0.00157505
0.00171275
0.0018558
0.0020088
0.0021672
0.0023372
0.00251373
0.00270098
0.00289537
0.00310051
0.00331362
0.00353683
0.00376802
0.00400832
0.00425433
0.00450104
0.00474177
0.00497732
0.00520974
0.00542937
0.00560959
0.00570728
0.00565114
0.00531737
4.97535e-06
0.000467969
0.000306205
0.000439427
0.000372808
0.000521739
0.000512272
0.000645416
0.000674611
0.000800361
0.000866849
0.000988659
0.00108098
0.00120147
0.00131513
0.00144479
0.00157278
0.00171023
0.00185265
0.00200459
0.00216245
0.00233177
0.00250672
0.00269274
0.00288525
0.0030887
0.00329885
0.00351764
0.00374103
0.00397028
0.00420147
0.00442953
0.00464947
0.00486463
0.00507496
0.00526874
0.00541855
0.0054876
0.0054144
0.00509178
8.94549e-06
0.000463779
0.00030863
0.000435641
0.000375835
0.000516828
0.000515504
0.000640052
0.00067782
0.000794496
0.000869379
0.000982552
0.00108164
0.00119516
0.00131387
0.00143943
0.00156834
0.00170489
0.00184646
0.00199723
0.00215451
0.0023211
0.00249474
0.002677
0.00286698
0.00306627
0.00327352
0.00348706
0.0037016
0.0039107
0.00411239
0.00431071
0.00450799
0.00470012
0.00487552
0.0050165
0.00509827
0.00508711
0.00493067
0.0045355
1.25333e-05
0.000459957
0.00031064
0.000433044
0.000377899
0.00051324
0.000517089
0.000636272
0.000678702
0.000790853
0.000869502
0.000979411
0.00108059
0.00119181
0.00131055
0.0014358
0.00156342
0.00169883
0.00183959
0.00198901
0.00214471
0.0023091
0.00248025
0.00265931
0.00284532
0.0030388
0.00323749
0.00343914
0.00364016
0.00383644
0.00402248
0.0041993
0.0043724
0.00453904
0.00468634
0.00479624
0.00484692
0.00481031
0.00464059
0.00425044
1.74825e-05
0.000453854
0.000314163
0.000428002
0.000381929
0.000506674
0.000521239
0.000629545
0.000682077
0.000783826
0.000870868
0.000973373
0.00107829
0.00118862
0.00130593
0.00142954
0.00155642
0.0016905
0.00183043
0.00197779
0.00213161
0.00229296
0.00246072
0.00263512
0.00281596
0.00300345
0.00319433
0.00338218
0.00356075
0.00373129
0.00389799
0.00406287
0.00422329
0.00437197
0.00449693
0.00458258
0.00460896
0.00454811
0.00435469
0.0039422
2.2376e-05
0.000447461
0.000317414
0.000423834
0.000385117
0.000500897
0.000523292
0.000624058
0.000682748
0.000779487
0.000870036
0.000970304
0.00107463
0.00118395
0.00130006
0.00142258
0.00154829
0.00168095
0.00181919
0.00196434
0.00211537
0.00227325
0.00243647
0.00260488
0.00277733
0.00295303
0.00312947
0.00330352
0.00347031
0.00362566
0.00377465
0.00392306
0.00406792
0.00420003
0.00430778
0.00437779
0.00439223
0.00432472
0.00412941
0.00371603
2.86577e-05
0.000438625
0.000322284
0.000417271
0.00039037
0.000492578
0.000527986
0.000616169
0.000684124
0.000773483
0.000867167
0.000967703
0.00106954
0.00117753
0.00129274
0.00141425
0.0015382
0.00166913
0.00180498
0.00194764
0.00209507
0.00224883
0.0024062
0.00256705
0.00272943
0.00289307
0.00305411
0.00320702
0.0033524
0.00349482
0.00363617
0.00377523
0.0039072
0.00402519
0.00411966
0.00417986
0.00419016
0.0041265
0.00394479
0.00355692
3.51993e-05
0.000428842
0.000327011
0.000411404
0.000394347
0.000484572
0.00052964
0.000610212
0.00068367
0.000770548
0.000863479
0.000962813
0.00106367
0.00117011
0.00128428
0.00140404
0.00152627
0.00165464
0.00178797
0.00192714
0.00207042
0.00221887
0.00237004
0.0025221
0.00267103
0.00281376
0.00295154
0.0030876
0.00322257
0.00335604
0.00348745
0.00361641
0.00374104
0.00385813
0.00396137
0.00404062
0.00407816
0.00404263
0.0038726
0.00344442
4.31833e-05
0.000416441
0.000333099
0.00040354
0.000400579
0.00047492
0.000533302
0.000602476
0.000679454
0.000767445
0.000859435
0.000956311
0.00105702
0.00116096
0.00127435
0.00139135
0.00151208
0.00163695
0.00176761
0.00190216
0.00204056
0.00218137
0.00232291
0.00246138
0.00259332
0.00271971
0.00284531
0.00297101
0.00309383
0.00320884
0.00331302
0.00340588
0.0034913
0.00357642
0.00366425
0.00374547
0.00381858
0.00391033
0.00409227
0.00450377
5.17247e-05
0.000402413
0.000339316
0.000396142
0.000404247
0.000465857
0.000532587
0.00060027
0.000675376
0.000762409
0.000853597
0.000948931
0.00104856
0.00115048
0.00126217
0.00137667
0.00149486
0.0016161
0.00174272
0.00187224
0.00200427
0.00213597
0.00226337
0.0023839
0.00250068
0.00261785
0.00273556
0.00284973
0.00295741
0.00305725
0.00315163
0.00324564
0.00334518
0.00344914
0.0035475
0.00363523
0.00372153
0.00383388
0.00402571
0.00439778
6.17643e-05
0.000385621
0.000345735
0.000388559
0.000409619
0.000458319
0.000526525
0.000596494
0.000671438
0.000756692
0.00084628
0.000940271
0.00103803
0.00113823
0.0012474
0.00135957
0.00147419
0.00159155
0.00171243
0.0018349
0.00195703
0.0020763
0.00218899
0.00229717
0.00240557
0.00251562
0.00262465
0.00272854
0.00282575
0.00291931
0.00301548
0.00311568
0.0032126
0.00329934
0.00337548
0.00344898
0.00353691
0.00366846
0.00389379
0.00430865
7.24679e-05
0.000367248
0.000352179
0.000380728
0.000409712
0.000454905
0.000520739
0.000591135
0.000665858
0.000750388
0.000838228
0.000930101
0.00102564
0.00112361
0.00123002
0.00133921
0.0014497
0.00156233
0.00167675
0.00179005
0.00189804
0.00200158
0.00210318
0.0022036
0.00230248
0.00240071
0.00250129
0.0026071
0.00271502
0.00281837
0.00291284
0.0029971
0.00307209
0.00314031
0.00320627
0.00327931
0.0033753
0.00351936
0.00375567
0.00417222
8.4682e-05
0.000345413
0.00035715
0.000377682
0.000407417
0.000451018
0.000515055
0.000583676
0.000657361
0.00074232
0.000828664
0.000918122
0.00101107
0.00110635
0.00120959
0.00131507
0.00142032
0.00152581
0.0016302
0.00173145
0.00182852
0.00192479
0.00202182
0.00211922
0.00221601
0.00231112
0.00240289
0.00248956
0.0025709
0.00265048
0.0027343
0.0028222
0.00290603
0.00298042
0.00304873
0.00312168
0.00321642
0.0033589
0.00359308
0.00400582
9.73952e-05
0.000324719
0.000358602
0.000373896
0.000402222
0.000445864
0.000509854
0.000577634
0.000649145
0.00073213
0.000816622
0.000903719
0.000993908
0.00108601
0.00118546
0.00128638
0.00138476
0.00148069
0.00157305
0.00166399
0.00175461
0.00184511
0.00193411
0.00202058
0.00210466
0.00218921
0.00227793
0.00237181
0.00246494
0.00255105
0.00262747
0.0026948
0.00275521
0.00281209
0.00287069
0.0029398
0.00303377
0.00317635
0.00341056
0.00382375
0.000111082
0.000303487
0.000354719
0.000371465
0.000398608
0.000440808
0.000503467
0.000569726
0.000638613
0.00071962
0.000802332
0.000886633
0.00097371
0.00106196
0.00115659
0.0012513
0.00134034
0.00142539
0.00150962
0.00159444
0.00167813
0.00175939
0.00183767
0.00191521
0.00199571
0.00208266
0.00217473
0.00226598
0.00235005
0.00242336
0.00248582
0.00253962
0.00258827
0.00263616
0.0026892
0.0027559
0.00284961
0.00299294
0.00322798
0.00364156
0.000124991
0.000283987
0.000346334
0.00036808
0.00039417
0.000434463
0.000495609
0.000560398
0.000626635
0.000705263
0.000785706
0.000866579
0.000949895
0.00103341
0.00112157
0.00120788
0.00128667
0.0013641
0.00144311
0.00152304
0.00160185
0.00167918
0.00175397
0.00182597
0.00189536
0.00196333
0.00203249
0.00210578
0.00218338
0.00225882
0.00232531
0.0023804
0.00242696
0.00247081
0.00251939
0.00258225
0.00267312
0.0028146
0.00304855
0.00346169
0.000138882
0.000265091
0.000333389
0.000363535
0.000389896
0.000428058
0.000487051
0.000549846
0.00061299
0.000688547
0.000766111
0.000842324
0.000920656
0.000998612
0.0010787
0.00115667
0.00122957
0.00130165
0.00137365
0.00144346
0.00150872
0.00157176
0.00163649
0.00170689
0.00178298
0.00186122
0.00193779
0.00200929
0.00207334
0.00212891
0.00217668
0.00221845
0.00225694
0.00229616
0.00234198
0.00240294
0.00249237
0.00263268
0.00286575
0.00327831
0.000152688
0.000248636
0.000314857
0.000356659
0.000385042
0.00042094
0.000477349
0.000537443
0.000596846
0.000668847
0.000743685
0.000814358
0.000884483
0.000953987
0.00102738
0.00110157
0.00117045
0.00123636
0.00130135
0.00136573
0.00142728
0.00148623
0.00154336
0.00159955
0.00165622
0.00171573
0.00178101
0.00185097
0.00191812
0.00197534
0.00202058
0.00205655
0.0020886
0.00212257
0.00216487
0.00222372
0.00231183
0.00245116
0.0026834
0.00309536
0.000163232
0.000234892
0.000296958
0.000345125
0.000377621
0.000412689
0.000466876
0.000524515
0.000579035
0.00064445
0.000713242
0.000777411
0.000842505
0.000908173
0.00097641
0.00104463
0.00110674
0.00116499
0.00122152
0.00127646
0.00132739
0.00137471
0.00142137
0.00147106
0.00152728
0.00159128
0.00165987
0.00172649
0.00178475
0.00183124
0.00186668
0.00189486
0.001921
0.00195066
0.00198998
0.0020469
0.00213378
0.00227231
0.0025041
0.00291596
0.000170595
0.000225496
0.000278463
0.000327685
0.000366584
0.000402543
0.000454115
0.000508337
0.000557664
0.000616832
0.000680688
0.000739365
0.000798026
0.000857869
0.000919272
0.000980129
0.00103469
0.00108491
0.00113357
0.00118177
0.001228
0.00127159
0.00131413
0.00135787
0.00140535
0.00145862
0.00151827
0.00157886
0.00163218
0.00167334
0.00170305
0.00172595
0.00174791
0.00177466
0.00181211
0.00186784
0.00195392
0.00209185
0.00232306
0.00273454
0.000175012
0.000216295
0.000261027
0.000308383
0.000350934
0.000388589
0.000438268
0.000489302
0.000534195
0.00058706
0.000645169
0.00069718
0.00074784
0.000800843
0.000855266
0.000908938
0.000956424
0.000999013
0.0010398
0.00107986
0.00111804
0.00115428
0.00119169
0.00123434
0.00128499
0.00134131
0.00139699
0.00144561
0.00148382
0.00151184
0.00153272
0.00155066
0.00157025
0.00159599
0.00163299
0.00168845
0.00177428
0.00191193
0.00214294
0.00255445
0.000176125
0.000207256
0.000244761
0.000288633
0.000330472
0.000369249
0.00041818
0.000466636
0.000507295
0.000554184
0.000605877
0.000650835
0.00069275
0.000738092
0.00078561
0.000831944
0.000872128
0.000907058
0.000940305
0.000973632
0.00100683
0.0010401
0.00107592
0.00111743
0.00116592
0.00121707
0.00126379
0.00130093
0.0013275
0.0013459
0.00136016
0.00137439
0.00139235
0.00141767
0.00145478
0.00151043
0.00159632
0.00173385
0.00196469
0.00237617
0.000173866
0.000197519
0.000228564
0.000268053
0.000307167
0.000344599
0.000392749
0.000439454
0.000476395
0.000517579
0.000562919
0.000600955
0.000633772
0.000670056
0.000710022
0.000748854
0.000781641
0.000809301
0.000835784
0.000863554
0.000892908
0.000924229
0.00095962
0.0010007
0.00104508
0.00108732
0.00112239
0.00114803
0.00116528
0.00117717
0.00118746
0.00119965
0.00121681
0.00124196
0.00127909
0.00133472
0.00142044
0.00155772
0.00178833
0.00219976
0.000167817
0.00018657
0.000212111
0.000247117
0.000282845
0.000315724
0.000359986
0.000405032
0.000439112
0.000475558
0.000515191
0.000547415
0.000572544
0.000599278
0.000630275
0.00066102
0.000686186
0.000706548
0.000726671
0.000750167
0.000778002
0.000810063
0.000846211
0.000884169
0.000920474
0.000951574
0.000975269
0.000991343
0.00100166
0.00100916
0.00101706
0.00102812
0.00104476
0.00106959
0.00110642
0.00116168
0.00124703
0.00138402
0.00161451
0.00202605
0.000158351
0.000173217
0.000194107
0.000224307
0.00025704
0.000286293
0.000325405
0.000365473
0.000394008
0.000423686
0.000457768
0.000486814
0.000507794
0.000526614
0.000548043
0.000570132
0.000587409
0.000600198
0.000613898
0.000633713
0.00066115
0.00069404
0.000728087
0.00075968
0.0007869
0.000808464
0.00082382
0.000833449
0.000839171
0.000843559
0.000849387
0.000859091
0.000874877
0.000899152
0.000935562
0.000990498
0.00107556
0.00121223
0.00144242
0.00185388
0.000145303
0.000157133
0.00017393
0.000199122
0.000227987
0.000252501
0.00028548
0.000321588
0.000345678
0.000369018
0.000397264
0.000421462
0.000437501
0.000449656
0.000463004
0.000478196
0.000490488
0.000498615
0.00050686
0.00052059
0.000542097
0.000569731
0.000599468
0.000626413
0.000648077
0.00066376
0.00067388
0.000679333
0.000681835
0.000683682
0.000687452
0.000695511
0.00071004
0.000733436
0.000769304
0.000823947
0.000908898
0.00104566
0.00127612
0.00168807
0.000128272
0.000137624
0.000150933
0.000170998
0.000195574
0.000215855
0.000242587
0.0002741
0.000294308
0.000310998
0.000332179
0.000350283
0.000360045
0.000364933
0.000369446
0.000375823
0.000381407
0.00038432
0.000387813
0.00039741
0.000416538
0.00044292
0.000469828
0.000491392
0.000505993
0.000514707
0.000519318
0.000521153
0.00052149
0.000521895
0.000524376
0.000531091
0.000544268
0.000566457
0.000601378
0.000655385
0.000740011
0.000876694
0.00110728
0.00151959
0.000108107
0.000114655
0.000124384
0.000139364
0.000159551
0.000175813
0.000195742
0.000221923
0.000238719
0.000249409
0.000264037
0.000277936
0.000284282
0.000285338
0.000285317
0.000286524
0.000287716
0.000286846
0.000285872
0.00028945
0.00030173
0.00032157
0.00034231
0.000357448
0.00036516
0.000367314
0.000366794
0.000365554
0.000364601
0.000364703
0.000367001
0.000373157
0.000385331
0.000406267
0.000439919
0.000492759
0.000576286
0.00071192
0.000941499
0.00135282
8.26626e-05
8.76064e-05
9.46703e-05
0.000105224
0.00012046
0.00013253
0.00014558
0.00016487
0.000177212
0.000181381
0.000187006
0.00019279
0.000191434
0.000183478
0.000173775
0.000165746
0.000160437
0.000157294
0.00015783
0.000164439
0.000177504
0.000193604
0.000207742
0.000216251
0.000218693
0.000216978
0.000213558
0.000210125
0.000207687
0.000207076
0.000209462
0.0002164
0.000229891
0.000252598
0.000288435
0.000343847
0.000430263
0.000568956
0.000801626
0.00121606
5.54666e-05
5.49016e-05
5.85624e-05
6.59032e-05
7.80682e-05
8.71111e-05
9.4902e-05
0.00010756
0.000117037
0.000118685
0.000120981
0.000125629
0.000126748
0.000121706
0.000114255
0.00010673
9.92727e-05
8.94414e-05
7.66612e-05
6.22066e-05
4.91768e-05
4.04055e-05
3.82576e-05
4.37493e-05
5.43686e-05
6.45122e-05
6.96434e-05
6.8185e-05
6.11381e-05
5.08631e-05
4.03244e-05
3.2679e-05
3.12261e-05
3.95409e-05
6.21908e-05
0.000106013
0.000182691
0.000313664
0.000540888
0.000952622
2.01066e-05
2.14444e-05
2.2507e-05
2.46905e-05
2.90541e-05
3.19962e-05
3.32048e-05
3.79061e-05
4.07913e-05
3.59555e-05
2.80258e-05
2.06476e-05
1.05396e-05
-5.35218e-06
-2.41991e-05
-4.21868e-05
-5.6889e-05
-6.79346e-05
-7.45932e-05
-7.54059e-05
-6.99189e-05
-6.08208e-05
-5.2502e-05
-4.85829e-05
-5.02517e-05
-5.62993e-05
-6.42444e-05
-7.15694e-05
-7.64191e-05
-7.76442e-05
-7.44547e-05
-6.59527e-05
-5.07064e-05
-2.63237e-05
1.11756e-05
6.85175e-05
0.00015748
0.000299647
0.000536967
0.000957455
-2.56828e-05
-1.95289e-05
-1.57354e-05
-1.34903e-05
-1.27436e-05
-1.59459e-05
-2.07628e-05
-2.10921e-05
-1.97583e-05
-2.17652e-05
-2.61561e-05
-2.93555e-05
-3.31672e-05
-4.04581e-05
-5.07862e-05
-6.15043e-05
-7.14681e-05
-8.1344e-05
-9.25113e-05
-0.000105195
-0.000118954
-0.000133104
-0.000147769
-0.000163477
-0.000181062
-0.000200903
-0.000223072
-0.00024743
-0.000274089
-0.000303386
-0.000336038
-0.000373052
-0.000415996
-0.000467296
-0.000531016
-0.000614034
-0.000728435
-0.000896191
-0.00115974
-0.00160768
-6.12587e-05
-6.23493e-05
-6.72706e-05
-7.35082e-05
-7.94948e-05
-8.69947e-05
-9.58244e-05
-0.000103614
-0.000112148
-0.000125622
-0.000143489
-0.000162625
-0.000182313
-0.000203982
-0.000226808
-0.000247487
-0.000262562
-0.000270411
-0.000272154
-0.000271611
-0.00027245
-0.000276442
-0.00028365
-0.000293054
-0.000303151
-0.000312372
-0.00031946
-0.00032351
-0.000323975
-0.000320512
-0.000312763
-0.000300049
-0.000281052
-0.000253416
-0.000213119
-0.000153334
-6.21667e-05
8.20471e-05
0.000321259
0.000743399
-0.000109433
-0.000110096
-0.000114467
-0.000120469
-0.000125652
-0.000132361
-0.000140764
-0.000147936
-0.000154228
-0.000162815
-0.000173886
-0.000185124
-0.000195792
-0.000207613
-0.000221719
-0.000237472
-0.00025385
-0.000270811
-0.000289184
-0.00030966
-0.000332339
-0.000356899
-0.000383124
-0.00041111
-0.000441178
-0.000473432
-0.000507764
-0.000543977
-0.000581974
-0.000621897
-0.000664224
-0.000709856
-0.000760286
-0.000817936
-0.000886804
-0.000973662
-0.00109036
-0.00125856
-0.00152022
-0.00196329
-0.000161546
-0.000165766
-0.000175781
-0.000190073
-0.000204665
-0.000220482
-0.000238716
-0.000257282
-0.000275826
-0.000296744
-0.000320813
-0.00034604
-0.000370153
-0.000392306
-0.000411741
-0.000426725
-0.000435717
-0.000439993
-0.000443351
-0.000449286
-0.000459077
-0.000471755
-0.00048533
-0.000497888
-0.00050822
-0.000515795
-0.000520432
-0.000522046
-0.000520526
-0.000515649
-0.000506991
-0.000493763
-0.000474566
-0.000447008
-0.000407064
-0.000347911
-0.000257654
-0.000114625
0.000123133
0.000543567
-0.00021245
-0.000215152
-0.000221633
-0.000232073
-0.000243182
-0.000254129
-0.000266747
-0.000280297
-0.000293422
-0.000307037
-0.000322366
-0.000339064
-0.00035607
-0.000373236
-0.000391202
-0.000410381
-0.000430741
-0.000452198
-0.000474974
-0.000499399
-0.000525666
-0.000553723
-0.000583464
-0.000614868
-0.000647875
-0.000682389
-0.000718305
-0.000755529
-0.00079407
-0.000834122
-0.000876174
-0.000921129
-0.000970496
-0.00102674
-0.00109389
-0.00117877
-0.00129324
-0.00145898
-0.00171795
-0.00215814
-0.000280365
-0.000287666
-0.00030092
-0.000320025
-0.00034304
-0.000366508
-0.000391006
-0.000417014
-0.000443465
-0.000469278
-0.000493886
-0.000516193
-0.000534478
-0.000547534
-0.000556287
-0.000563424
-0.000571416
-0.000581473
-0.000593625
-0.000607116
-0.000620849
-0.00063369
-0.000644725
-0.000653366
-0.000659494
-0.000663245
-0.000664787
-0.000664163
-0.00066123
-0.000655636
-0.000646782
-0.000633717
-0.000614928
-0.000587966
-0.000548792
-0.00049059
-0.000401479
-0.000259795
-2.35807e-05
0.000395121
-0.000328433
-0.000330747
-0.000335747
-0.000343907
-0.000357207
-0.000372873
-0.000389587
-0.000407468
-0.000427232
-0.000449337
-0.000473375
-0.000497566
-0.000519775
-0.00053898
-0.000555611
-0.000570689
-0.000585437
-0.000600734
-0.000617274
-0.000635382
-0.00065518
-0.000676553
-0.000699403
-0.000723682
-0.000749383
-0.00077648
-0.000805002
-0.000835001
-0.000866632
-0.000900184
-0.000936207
-0.000975621
-0.00101995
-0.00107166
-0.00113482
-0.00121625
-0.00132788
-0.00149139
-0.00174882
-0.00218826
-0.000415313
-0.000422555
-0.000436732
-0.000456664
-0.000483044
-0.000513279
-0.000544455
-0.000574307
-0.00060196
-0.000626462
-0.000647427
-0.000664748
-0.000678891
-0.000690288
-0.000699489
-0.000706821
-0.000712665
-0.000717224
-0.000720726
-0.000723217
-0.00072472
-0.000725111
-0.000724281
-0.00072206
-0.000718383
-0.000713239
-0.000706678
-0.000698681
-0.000689133
-0.000677725
-0.000663906
-0.000646734
-0.000624699
-0.000595341
-0.000554632
-0.000495778
-0.00040696
-0.000266605
-3.29159e-05
0.000381819
0.0062647
0.00633731
0.0066163
0.00679291
0.00678911
0.00661015
0.00631535
0.00597501
0.00564114
0.00534204
0.0050886
0.00488074
0.00471081
0.00456795
0.00444159
0.00432322
0.00420697
0.00408944
0.00396914
0.00384602
0.00372091
0.00359505
0.00346977
0.00334611
0.00322473
0.0031058
0.00298909
0.00287403
0.00275982
0.00264563
0.00253065
0.00241422
0.00229576
0.0021749
0.0020513
0.00192471
0.00179472
0.00166084
0.00152242
0.00137859
0.00122848
0.00107086
0.000904738
0.000728499
0.000540779
0.000339443
0.000121934
-0.000115105
-0.00037631
-0.000667237
-0.00099455
-0.00136063
-0.00177172
-0.00223733
-0.00276537
-0.00336483
-0.00404542
-0.00480147
-0.00558636
-0.00632186
-0.0069038
-0.00723484
-0.00726173
-0.00700323
-0.0065881
-0.00614573
-0.00575826
-0.00545975
-0.00526436
-0.00516847
-0.00513967
-0.00515537
-0.0052043
-0.00527057
-0.00534883
-0.00543333
-0.00552284
-0.00561671
-0.00571253
-0.00581281
-0.00591573
-0.00601978
-0.00612709
-0.00623461
-0.0063435
-0.00645223
-0.00656228
-0.00667136
-0.00677843
-0.00688397
-0.00698769
-0.00708244
-0.00717592
-0.00726306
-0.00734396
-0.0074171
-0.0074888
-0.00755149
-0.0076102
-0.00765958
0.00494638
0.00502019
0.0054725
0.00591388
0.00617937
0.00622925
0.0060883
0.00582854
0.00552651
0.00523576
0.00498327
0.00477753
0.00461492
0.00448392
0.00437099
0.00426483
0.00415807
0.00404706
0.00393087
0.00381027
0.00368689
0.00356252
0.00343872
0.00331656
0.00319663
0.00307904
0.00296349
0.00284943
0.00273605
0.00262256
0.00250813
0.00239213
0.00227396
0.00215328
0.00202974
0.00190325
0.00177343
0.0016398
0.00150166
0.00135812
0.00120833
0.001051
0.00088517
0.0007092
0.000521779
0.000320744
0.000103623
-0.000132982
-0.000393512
-0.000683485
-0.00100958
-0.00137388
-0.00178276
-0.00224557
-0.00276942
-0.00336306
-0.004036
-0.00478351
-0.00556065
-0.00628947
-0.00686773
-0.0072001
-0.00723219
-0.00697981
-0.00657006
-0.00613209
-0.00574777
-0.00545116
-0.00525689
-0.00516178
-0.00513347
-0.00514959
-0.00519898
-0.00526571
-0.00534441
-0.00542932
-0.00551927
-0.00561356
-0.00570975
-0.00581039
-0.00591364
-0.00601796
-0.00612552
-0.00623325
-0.00634233
-0.00645121
-0.00656139
-0.00667059
-0.00677777
-0.00688339
-0.0069872
-0.00708202
-0.00717556
-0.00726276
-0.0073437
-0.00741689
-0.00748862
-0.00755136
-0.00761008
-0.00765949
0.00475481
0.00485984
0.00535397
0.00584021
0.00614659
0.00622932
0.00610891
0.00585609
0.00555028
0.00524989
0.00498615
0.00477024
0.00460052
0.00446601
0.00435239
0.00424696
0.00414107
0.00403027
0.00391334
0.00379115
0.0036657
0.00353919
0.00341349
0.00328987
0.00316891
0.00305066
0.00293469
0.00282031
0.00270664
0.00259285
0.00247811
0.0023618
0.00224342
0.00212264
0.00199908
0.00187236
0.00174205
0.00160774
0.0014689
0.00132471
0.00117438
0.00101661
0.000850418
0.000674159
0.000486482
0.000285234
6.79934e-05
-0.000168531
-0.000428669
-0.000717327
-0.00104116
-0.00140253
-0.00180714
-0.00226427
-0.00278014
-0.00336251
-0.0040191
-0.00474257
-0.00549003
-0.00619106
-0.00675221
-0.00708662
-0.00714009
-0.00691713
-0.00653371
-0.00611632
-0.0057462
-0.00545627
-0.00526384
-0.00516883
-0.00513955
-0.0051542
-0.00520218
-0.00526773
-0.00534559
-0.00542987
-0.00551928
-0.00561315
-0.00570902
-0.00580941
-0.00591246
-0.00601665
-0.00612414
-0.00623185
-0.00634096
-0.0064499
-0.00656016
-0.00666945
-0.00677673
-0.00688247
-0.00698639
-0.00708133
-0.00717498
-0.00726229
-0.00734333
-0.00741661
-0.00748841
-0.00755121
-0.00760999
-0.00765944
0.00416204
0.00424644
0.00473556
0.00524287
0.00559325
0.00573831
0.00568885
0.00550364
0.00525431
0.00499726
0.00476531
0.00457211
0.00441925
0.00429917
0.00419973
0.00410885
0.00401739
0.00392003
0.00381478
0.00370212
0.00358407
0.00346328
0.0033422
0.00322261
0.00310545
0.0029909
0.00287847
0.00276736
0.00265655
0.00254513
0.00243229
0.00231749
0.00220029
0.00208045
0.00195765
0.00183162
0.00170203
0.00156838
0.00143018
0.00128653
0.00113669
0.000979293
0.000813446
0.000637391
0.00044991
0.000248727
3.1611e-05
-0.000204673
-0.000464301
-0.000751338
-0.00107269
-0.00143087
-0.00183087
-0.00228151
-0.00278851
-0.00335718
-0.00399322
-0.00469019
-0.00540824
-0.00608191
-0.00662554
-0.00696
-0.00703378
-0.00684065
-0.00648367
-0.00608708
-0.00573128
-0.00544938
-0.00526002
-0.00516574
-0.00513626
-0.00515039
-0.00519778
-0.00526296
-0.00534067
-0.00542496
-0.00551458
-0.00560872
-0.00570487
-0.00580555
-0.00590891
-0.00601337
-0.00612112
-0.00622906
-0.00633837
-0.00644748
-0.00655791
-0.00666735
-0.00677477
-0.00688063
-0.00698469
-0.00707978
-0.00717356
-0.00726103
-0.0073422
-0.00741567
-0.00748759
-0.00755059
-0.00760953
-0.0076591
0.00389595
0.00399892
0.00451309
0.00504849
0.00542786
0.00560149
0.00557828
0.00541498
0.00518217
0.00493646
0.00471168
0.00452264
0.00437218
0.00425413
0.00415728
0.00406975
0.00398205
0.00388825
0.00378588
0.00367504
0.00355772
0.0034368
0.00331514
0.00319489
0.00307725
0.0029625
0.0028501
0.00273907
0.00262824
0.00251658
0.00240328
0.00228785
0.00216996
0.00204945
0.0019261
0.00179964
0.0016697
0.00153573
0.00139714
0.00125303
0.00110267
0.000944782
0.000778426
0.000601957
0.000414062
0.000212588
-4.728e-06
-0.000240903
-0.000500014
-0.000785693
-0.00110464
-0.0014595
-0.00185454
-0.00229805
-0.00279516
-0.00334911
-0.00396424
-0.00463444
-0.00532188
-0.00596543
-0.00648781
-0.00681846
-0.00690969
-0.0067483
-0.00642391
-0.00605323
-0.00571608
-0.00544627
-0.00526188
-0.00516916
-0.00513961
-0.00515273
-0.00519885
-0.00526284
-0.00533961
-0.00542322
-0.00551232
-0.00560606
-0.00570192
-0.00580238
-0.00590557
-0.00600994
-0.00611766
-0.00622563
-0.00633502
-0.00644423
-0.00655471
-0.00666424
-0.00677175
-0.00687775
-0.00698196
-0.00707726
-0.00717123
-0.00725896
-0.00734035
-0.00741411
-0.00748623
-0.00754954
-0.0076087
-0.00765845
0.00357262
0.00366705
0.00417668
0.00471286
0.00509795
0.00528173
0.00527196
0.00512407
0.00490773
0.00467903
0.00447144
0.00429946
0.00416557
0.00406325
0.00398096
0.00390667
0.00383086
0.00374774
0.00365493
0.00355272
0.00344327
0.00332962
0.00321472
0.00310079
0.00298904
0.0028797
0.00277221
0.00266555
0.00255854
0.00245019
0.00233976
0.00222683
0.00211116
0.00199264
0.00187113
0.00174635
0.00161796
0.00148532
0.00134793
0.00120483
0.00105537
0.000898266
0.000732641
0.000556869
0.00036962
0.000168847
-4.77819e-05
-0.000282937
-0.000540777
-0.000824389
-0.00114004
-0.00149066
-0.00187991
-0.00231513
-0.00280116
-0.00333969
-0.00393327
-0.00457597
-0.00523216
-0.00584556
-0.00634755
-0.00667512
-0.00678427
-0.00665602
-0.00636392
-0.00601868
-0.00569977
-0.00544109
-0.0052611
-0.00516854
-0.0051383
-0.00515039
-0.00519537
-0.00525848
-0.00533468
-0.00541795
-0.00550693
-0.00560072
-0.00569666
-0.00579725
-0.00590061
-0.00600514
-0.00611304
-0.0062212
-0.00633074
-0.0064401
-0.00655071
-0.0066604
-0.00676802
-0.00687416
-0.00697849
-0.00707401
-0.00716814
-0.00725614
-0.00733774
-0.00741187
-0.00748421
-0.00754794
-0.00760739
-0.0076574
0.00334402
0.00343831
0.00394697
0.00447871
0.00485753
0.00503542
0.00502315
0.00487896
0.00467352
0.00446218
0.00427683
0.00412966
0.00402057
0.00394035
0.00387578
0.00381446
0.00374764
0.00367072
0.00358251
0.00348436
0.00337915
0.00327013
0.00316009
0.00305087
0.00294327
0.00283727
0.0027322
0.00262712
0.00252104
0.00241319
0.00230303
0.00219025
0.00207468
0.00195623
0.00183475
0.00170996
0.00158149
0.00144871
0.00131109
0.00116774
0.00101797
0.00086058
0.000694651
0.000518644
0.000331203
0.000130374
-8.61557e-05
-0.00032084
-0.000577739
-0.000859559
-0.00117206
-0.00151844
-0.00190177
-0.00232828
-0.0028028
-0.00332563
-0.00389747
-0.00451248
-0.00513787
-0.00572204
-0.00620409
-0.00652752
-0.00665188
-0.00655443
-0.00629515
-0.00597697
-0.00567789
-0.00543214
-0.00525806
-0.00516729
-0.00513739
-0.00514938
-0.00519378
-0.00525609
-0.00533164
-0.00541449
-0.00550316
-0.00559672
-0.00569249
-0.00579297
-0.00589623
-0.00600073
-0.00610861
-0.0062168
-0.00632639
-0.00643585
-0.00654651
-0.00665629
-0.00676397
-0.00687021
-0.00697465
-0.00707039
-0.00716466
-0.00725296
-0.00733478
-0.00740933
-0.00748189
-0.00754609
-0.00760583
-0.00765615
0.0032091
0.00332534
0.00384955
0.00437478
0.00472774
0.00486551
0.00481003
0.00463341
0.00441357
0.00420459
0.00403253
0.003905
0.00381716
0.00375572
0.00370534
0.00365364
0.00359309
0.00352067
0.00343664
0.00334349
0.0032446
0.00314311
0.00304124
0.00294016
0.00284009
0.00274062
0.00264097
0.00254029
0.00243788
0.00233323
0.00222602
0.00211607
0.00200326
0.00188742
0.00176841
0.00164585
0.00151941
0.00138844
0.00125243
0.00111052
0.000962047
0.000805885
0.000641082
0.000466218
0.000279873
8.0266e-05
-0.000134958
-0.000367986
-0.000622735
-0.000901675
-0.00120997
-0.00155087
-0.00192714
-0.00234381
-0.00280553
-0.00331174
-0.00386114
-0.00444817
-0.00504306
-0.00559852
-0.00606046
-0.00637873
-0.00651659
-0.00644989
-0.00622485
-0.00593473
-0.00565596
-0.00542346
-0.0052559
-0.00516664
-0.00513668
-0.00514793
-0.00519129
-0.00525263
-0.00532726
-0.00540948
-0.00549779
-0.00559122
-0.00568691
-0.00578737
-0.00589069
-0.00599528
-0.00610328
-0.00621163
-0.00632136
-0.00643098
-0.00654174
-0.00665167
-0.00675943
-0.00686582
-0.00697037
-0.00706637
-0.0071608
-0.00724943
-0.00733147
-0.00740647
-0.00747927
-0.00754397
-0.00760403
-0.00765469
0.0030215
0.00307502
0.0035256
0.00398615
0.00429818
0.0044271
0.0043957
0.00426598
0.00410184
0.00394631
0.00381933
0.00372526
0.00365777
0.00360516
0.00355646
0.00350433
0.00344482
0.00337667
0.00330052
0.00321808
0.00313133
0.00304199
0.00295116
0.00285935
0.0027666
0.00267263
0.00257705
0.00247946
0.00237954
0.00227705
0.00217183
0.00206374
0.00195265
0.00183836
0.00172065
0.00159916
0.00147354
0.00134322
0.00120769
0.00106616
0.00091797
0.000762067
0.000597512
0.000422932
0.000236939
3.78429e-05
-0.000176648
-0.000408527
-0.000661501
-0.000937855
-0.00124216
-0.00157755
-0.0019467
-0.00235337
-0.00280191
-0.00329131
-0.00381843
-0.00437787
-0.00494286
-0.00547042
-0.00591249
-0.0062251
-0.00637506
-0.00633757
-0.00614656
-0.0058852
-0.00562757
-0.00540967
-0.00524984
-0.00516297
-0.00513355
-0.00514465
-0.00518749
-0.00524818
-0.00532228
-0.00540417
-0.00549228
-0.00558564
-0.00568137
-0.00578188
-0.00588524
-0.00598987
-0.00609794
-0.00620639
-0.00631622
-0.00642597
-0.00653681
-0.00664685
-0.00675469
-0.0068612
-0.00696587
-0.00706212
-0.0071567
-0.00724567
-0.00732795
-0.00740342
-0.00747649
-0.00754171
-0.00760211
-0.00765314
0.00489799
0.00481775
0.00433006
0.00382437