/*--------------------------------*- C++ -*----------------------------------*\
| =========                 |                                                 |
| \\      /  F ield         | OpenFOAM: The Open Source CFD Toolbox           |
|  \\    /   O peration     | Version:  2312                                  |
|   \\  /    A nd           | Website:  www.openfoam.com                      |
|    \\/     M anipulation  |                                                 |
\*---------------------------------------------------------------------------*/
FoamFile
{
    version     2.0;
    format      ascii;
    arch        "LSB;label=32;scalar=64";
    class       surfaceScalarField;
    location    "0.85";
    object      phi;
}
// * * * * * * * * * * * * * * * * * * * * * * * * * * * * * * * * * * * * * //

dimensions      [0 3 -1 0 0 0 0];

oriented        oriented;

internalField   nonuniform List<scalar> 
11020
(
3.87756e-06
-6.63531e-08
3.87747e-06
5.14033e-08
3.87757e-06
-4.40203e-08
3.87759e-06
3.7681e-08
3.87749e-06
-3.05421e-08
3.87773e-06
2.43035e-08
3.87726e-06
-2.0979e-08
3.87755e-06
1.63847e-08
3.87683e-06
-1.29127e-08
3.87701e-06
1.18963e-08
3.87615e-06
-6.75548e-09
3.87627e-06
8.80992e-09
3.87541e-06
-3.65223e-09
3.87542e-06
6.26804e-09
3.87454e-06
-1.73113e-09
3.87439e-06
5.03492e-09
3.87356e-06
-1.85904e-10
3.87327e-06
4.61652e-09
3.87251e-06
8.58026e-10
3.87216e-06
4.2448e-09
3.87142e-06
1.34407e-09
3.87097e-06
3.85076e-09
3.87023e-06
1.70507e-09
3.86967e-06
3.65246e-09
3.86889e-06
2.15733e-09
3.86824e-06
3.63136e-09
3.86742e-06
2.57015e-09
3.86668e-06
3.64871e-09
3.8658e-06
2.88693e-09
3.86493e-06
3.70376e-09
3.86389e-06
3.25578e-09
3.86274e-06
4.06367e-09
3.86135e-06
4.10756e-09
3.85979e-06
5.19526e-09
3.85799e-06
5.71046e-09
3.85602e-06
6.89103e-09
3.85383e-06
7.5694e-09
3.8514e-06
8.8824e-09
3.84868e-06
1.00598e-08
1.18511e-08
3.8457e-06
4.18301e-06
-6.35006e-08
4.18763e-06
4.67817e-08
4.18395e-06
-4.03438e-08
4.18797e-06
3.36644e-08
4.18451e-06
-2.70785e-08
4.18805e-06
2.07613e-08
4.18462e-06
-1.75534e-08
4.18762e-06
1.33882e-08
4.18449e-06
-9.78598e-09
4.18678e-06
9.60408e-09
4.18402e-06
-3.99132e-09
4.18582e-06
7.01415e-09
4.1835e-06
-1.33205e-09
4.18475e-06
5.01341e-09
4.18273e-06
2.85312e-10
4.18344e-06
4.32601e-09
4.18177e-06
1.48511e-09
4.18212e-06
4.26808e-09
4.18078e-06
2.20189e-09
4.18086e-06
4.15978e-09
4.17961e-06
2.59176e-09
4.17947e-06
3.99068e-09
4.1783e-06
2.88152e-09
4.17797e-06
3.97645e-09
4.17687e-06
3.26504e-09
4.17638e-06
4.12071e-09
4.17528e-06
3.66378e-09
4.17461e-06
4.3242e-09
4.17343e-06
4.0676e-09
4.17247e-06
4.65921e-09
4.17105e-06
4.67759e-09
4.16971e-06
5.40043e-09
4.16805e-06
5.76789e-09
4.1666e-06
6.64636e-09
4.16508e-06
7.22825e-09
4.16383e-06
8.14762e-09
4.16258e-06
8.81649e-09
4.16168e-06
9.77963e-09
4.1611e-06
1.0638e-08
1.17206e-08
4.16123e-06
4.51656e-06
-5.99988e-08
4.52066e-06
4.26851e-08
4.51684e-06
-3.65228e-08
4.52039e-06
3.01118e-08
4.51708e-06
-2.37674e-08
4.52006e-06
1.77807e-08
4.5169e-06
-1.43949e-08
4.51927e-06
1.10134e-08
4.51658e-06
-7.09504e-09
4.51832e-06
7.86769e-09
4.51606e-06
-1.72891e-09
4.51736e-06
5.71548e-09
4.51551e-06
5.17634e-10
4.51633e-06
4.18613e-09
4.51467e-06
1.94707e-09
4.51501e-06
3.98424e-09
4.51358e-06
2.92062e-09
4.51363e-06
4.21278e-09
4.51243e-06
3.40405e-09
4.51231e-06
4.27943e-09
4.51121e-06
3.69511e-09
4.51089e-06
4.30504e-09
4.5098e-06
3.97382e-09
4.50932e-06
4.45981e-09
4.50825e-06
4.33591e-09
4.50762e-06
4.74939e-09
4.50654e-06
4.74436e-09
4.50578e-06
5.07969e-09
4.50464e-06
5.20643e-09
4.50358e-06
5.71951e-09
4.50212e-06
6.14275e-09
4.50068e-06
6.8396e-09
4.49902e-06
7.42593e-09
4.49757e-06
8.09398e-09
4.49616e-06
8.64474e-09
4.495e-06
9.30169e-09
4.4939e-06
9.91761e-09
4.49307e-06
1.06116e-08
4.49248e-06
1.12277e-08
1.18094e-08
4.49239e-06
4.87787e-06
-5.69211e-08
4.881e-06
3.95593e-08
4.87752e-06
-3.30504e-08
4.8805e-06
2.71369e-08
4.87753e-06
-2.0795e-08
4.87998e-06
1.53282e-08
4.87708e-06
-1.15009e-08
4.87893e-06
9.17208e-09
4.87649e-06
-4.66368e-09
4.87777e-06
6.58739e-09
4.8759e-06
1.41707e-10
4.87672e-06
4.89912e-09
4.87532e-06
1.91485e-09
4.87558e-06
3.93366e-09
4.87459e-06
2.93368e-09
4.87436e-06
4.21259e-09
4.87351e-06
3.77182e-09
4.87305e-06
4.6745e-09
4.87216e-06
4.29229e-09
4.87158e-06
4.85957e-09
4.87069e-06
4.58667e-09
4.86999e-06
4.99927e-09
4.86907e-06
4.89374e-09
4.86827e-06
5.25933e-09
4.86731e-06
5.30229e-09
4.86638e-06
5.67502e-09
4.86525e-06
5.87678e-09
4.86404e-06
6.29402e-09
4.86263e-06
6.60992e-09
4.86127e-06
7.07834e-09
4.85987e-06
7.54683e-09
4.85853e-06
8.17735e-09
4.85723e-06
8.72851e-09
4.85602e-06
9.30493e-09
4.8549e-06
9.76305e-09
4.85396e-06
1.02377e-08
4.85323e-06
1.06468e-08
4.85279e-06
1.10564e-08
4.85265e-06
1.13706e-08
1.16026e-08
4.85285e-06
5.26762e-06
-5.38955e-08
5.27065e-06
3.65333e-08
5.26703e-06
-2.94313e-08
5.27003e-06
2.41377e-08
5.26705e-06
-1.78149e-08
5.26948e-06
1.28923e-08
5.26653e-06
-8.55146e-09
5.26832e-06
7.38856e-09
5.2658e-06
-2.14423e-09
5.26693e-06
5.4535e-09
5.26505e-06
2.02338e-09
5.26578e-06
4.1724e-09
5.26445e-06
3.24559e-09
5.26455e-06
3.82654e-09
5.26375e-06
3.73922e-09
5.26339e-06
4.57253e-09
5.26253e-06
4.62828e-09
5.26203e-06
5.1761e-09
5.26114e-06
5.18303e-09
5.26052e-06
5.48128e-09
5.25959e-06
5.51646e-09
5.25882e-06
5.77072e-09
5.25782e-06
5.88687e-09
5.25691e-06
6.17112e-09
5.25584e-06
6.37102e-09
5.25484e-06
6.67578e-09
5.25375e-06
6.97245e-09
5.25263e-06
7.40542e-09
5.2513e-06
7.94862e-09
5.2498e-06
8.56965e-09
5.2482e-06
9.1492e-09
5.2467e-06
9.67888e-09
5.24534e-06
1.00912e-08
5.24418e-06
1.04583e-08
5.2432e-06
1.07508e-08
5.2424e-06
1.1034e-08
5.24177e-06
1.12721e-08
5.24138e-06
1.14504e-08
5.24122e-06
1.15289e-08
1.1536e-08
5.24129e-06
5.68829e-06
-5.07238e-08
5.69154e-06
3.32834e-08
5.68767e-06
-2.55627e-08
5.69066e-06
2.11437e-08
5.68769e-06
-1.48375e-08
5.69012e-06
1.04549e-08
5.68723e-06
-5.65861e-09
5.68887e-06
5.74381e-09
5.68654e-06
1.9501e-10
5.68725e-06
4.74205e-09
5.6857e-06
3.56792e-09
5.68593e-06
3.94591e-09
5.6852e-06
3.97314e-09
5.68484e-06
4.18621e-09
5.6841e-06
4.4827e-09
5.6836e-06
5.07325e-09
5.68281e-06
5.42064e-09
5.68221e-06
5.7715e-09
5.68138e-06
6.01047e-09
5.68066e-06
6.19884e-09
5.67977e-06
6.41233e-09
5.67891e-06
6.63462e-09
5.67791e-06
6.88023e-09
5.67691e-06
7.17262e-09
5.67575e-06
7.53302e-09
5.67447e-06
7.95043e-09
5.67303e-06
8.41831e-09
5.67152e-06
8.91813e-09
5.67008e-06
9.38411e-09
5.66872e-06
9.9256e-09
5.66741e-06
1.04638e-08
5.66616e-06
1.09258e-08
5.66495e-06
1.12992e-08
5.66386e-06
1.15538e-08
5.66291e-06
1.17019e-08
5.66214e-06
1.17973e-08
5.66161e-06
1.1811e-08
5.66131e-06
1.17406e-08
5.66126e-06
1.15803e-08
1.13351e-08
5.66146e-06
6.14248e-06
-4.73348e-08
6.14602e-06
2.97451e-08
6.14196e-06
-2.15033e-08
6.14493e-06
1.81733e-08
6.14184e-06
-1.17485e-08
6.14433e-06
7.96842e-09
6.14145e-06
-2.78496e-09
6.14303e-06
4.16986e-09
6.1408e-06
2.42303e-09
6.14132e-06
4.22609e-09
6.13995e-06
4.93254e-09
6.13989e-06
4.01232e-09
6.13917e-06
4.68776e-09
6.13876e-06
4.60161e-09
6.13793e-06
5.30442e-09
6.13741e-06
5.60064e-09
6.13657e-06
6.25236e-09
6.13595e-06
6.39192e-09
6.13509e-06
6.8741e-09
6.13435e-06
6.94348e-09
6.13342e-06
7.34299e-09
6.13252e-06
7.52831e-09
6.13147e-06
7.93457e-09
6.13042e-06
8.22028e-09
6.12928e-06
8.67655e-09
6.12817e-06
9.05778e-09
6.12692e-06
9.66353e-09
6.12555e-06
1.02888e-08
6.1239e-06
1.10337e-08
6.12227e-06
1.15597e-08
6.12075e-06
1.19797e-08
6.11947e-06
1.22102e-08
6.11833e-06
1.24362e-08
6.1173e-06
1.25825e-08
6.11638e-06
1.26276e-08
6.11562e-06
1.2552e-08
6.11505e-06
1.23798e-08
6.11471e-06
1.20857e-08
6.1146e-06
1.16902e-08
1.10967e-08
6.11484e-06
6.63297e-06
-4.37391e-08
6.63669e-06
2.60237e-08
6.6326e-06
-1.74137e-08
6.63552e-06
1.52477e-08
6.63237e-06
-8.59294e-09
6.63466e-06
5.67315e-09
6.63205e-06
-1.70106e-10
6.63325e-06
2.97203e-09
6.63147e-06
4.19801e-09
6.63155e-06
4.14573e-09
6.63068e-06
5.80052e-09
6.63034e-06
4.35384e-09
6.62938e-06
5.6517e-09
6.62897e-06
5.01023e-09
6.62802e-06
6.2567e-09
6.62751e-06
6.10823e-09
6.62656e-06
7.20457e-09
6.62595e-06
6.99584e-09
6.62497e-06
7.85302e-09
6.62424e-06
7.67681e-09
6.62319e-06
8.38912e-09
6.62232e-06
8.39994e-09
6.62119e-06
9.06661e-09
6.62019e-06
9.22296e-09
6.61891e-06
9.95145e-09
6.61756e-06
1.04138e-08
6.61592e-06
1.12996e-08
6.61439e-06
1.18211e-08
6.6129e-06
1.25192e-08
6.61164e-06
1.28241e-08
6.6104e-06
1.32198e-08
6.60925e-06
1.33627e-08
6.60811e-06
1.35689e-08
6.60713e-06
1.35675e-08
6.6062e-06
1.35528e-08
6.60544e-06
1.33114e-08
6.60481e-06
1.30092e-08
6.60438e-06
1.25183e-08
6.60396e-06
1.21126e-08
1.13401e-08
6.60372e-06
7.16265e-06
-3.99621e-08
7.16647e-06
2.22078e-08
7.16237e-06
-1.3312e-08
7.16535e-06
1.22649e-08
7.16213e-06
-5.37779e-09
7.16419e-06
3.61729e-09
7.16178e-06
2.24027e-09
7.16261e-06
2.14398e-09
7.16133e-06
5.47881e-09
7.16105e-06
4.42312e-09
7.16036e-06
6.49561e-09
7.15989e-06
4.82315e-09
7.15893e-06
6.60579e-09
7.15836e-06
5.57794e-09
7.15739e-06
7.22975e-09
7.15676e-06
6.74291e-09
7.15579e-06
8.17069e-09
7.15507e-06
7.71907e-09
7.15407e-06
8.85354e-09
7.15324e-06
8.50833e-09
7.15216e-06
9.46893e-09
7.15116e-06
9.39543e-09
7.1499e-06
1.03311e-08
7.14863e-06
1.04894e-08
7.14706e-06
1.15213e-08
7.14558e-06
1.18881e-08
7.14412e-06
1.27628e-08
7.1429e-06
1.30454e-08
7.14174e-06
1.3675e-08
7.14066e-06
1.39042e-08
7.13952e-06
1.43608e-08
7.1384e-06
1.44825e-08
7.1372e-06
1.47646e-08
7.13603e-06
1.47412e-08
7.13484e-06
1.4743e-08
7.13371e-06
1.44466e-08
7.13261e-06
1.41082e-08
7.13172e-06
1.34053e-08
7.13158e-06
1.22571e-08
1.06819e-08
7.13223e-06
7.7347e-06
-3.60576e-08
7.73853e-06
1.83784e-08
7.73448e-06
-9.26298e-09
7.73736e-06
9.3804e-09
7.73438e-06
-2.38919e-09
7.73584e-06
2.15422e-09
7.73419e-06
3.88814e-09
7.73372e-06
2.61658e-09
7.73356e-06
5.6343e-09
7.73289e-06
5.09151e-09
7.73241e-06
6.97581e-09
7.73156e-06
5.68116e-09
7.73088e-06
7.27992e-09
7.72994e-06
6.51972e-09
7.72918e-06
7.98618e-09
7.72821e-06
7.71695e-09
7.72743e-06
8.95191e-09
7.7264e-06
8.74304e-09
7.72554e-06
9.71689e-09
7.72444e-06
9.60851e-09
7.72345e-06
1.04584e-08
7.72224e-06
1.06114e-08
7.72101e-06
1.15525e-08
7.71949e-06
1.20127e-08
7.718e-06
1.30114e-08
7.71646e-06
1.34242e-08
7.71514e-06
1.40897e-08
7.71388e-06
1.42991e-08
7.71284e-06
1.47156e-08
7.71196e-06
1.47902e-08
7.71136e-06
1.49614e-08
7.71108e-06
1.47624e-08
7.7112e-06
1.46454e-08
7.71163e-06
1.43089e-08
7.71236e-06
1.40145e-08
7.71322e-06
1.35813e-08
7.71418e-06
1.31552e-08
7.715e-06
1.25833e-08
7.71515e-06
1.21014e-08
1.1219e-08
7.71462e-06
8.35247e-06
-3.20655e-08
8.35628e-06
1.45678e-08
8.35231e-06
-5.29121e-09
8.35499e-06
6.6967e-09
8.35234e-06
2.61495e-10
8.35318e-06
1.31823e-09
8.35256e-06
4.50301e-09
8.35128e-06
3.89994e-09
8.35112e-06
5.79178e-09
8.35029e-06
5.92291e-09
8.34995e-06
7.31655e-09
8.34894e-06
6.69425e-09
8.34835e-06
7.86027e-09
8.34725e-06
7.62752e-09
8.34654e-06
8.69059e-09
8.34542e-06
8.8446e-09
8.34466e-06
9.70268e-09
8.34351e-06
9.89676e-09
8.34263e-06
1.05993e-08
8.34134e-06
1.08928e-08
8.34022e-06
1.15794e-08
8.3387e-06
1.21297e-08
8.33728e-06
1.29754e-08
8.33568e-06
1.36133e-08
8.3344e-06
1.42972e-08
8.33311e-06
1.47079e-08
8.33207e-06
1.51341e-08
8.33104e-06
1.53226e-08
8.33024e-06
1.55163e-08
8.32959e-06
1.54408e-08
8.32932e-06
1.52344e-08
8.32922e-06
1.48625e-08
8.32937e-06
1.44944e-08
8.32953e-06
1.4145e-08
8.32981e-06
1.37379e-08
8.33012e-06
1.32736e-08
8.3305e-06
1.27713e-08
8.3309e-06
1.21872e-08
8.33146e-06
1.15348e-08
1.07279e-08
8.33196e-06
9.01963e-06
-2.80466e-08
9.02335e-06
1.08476e-08
9.0196e-06
-1.54764e-09
9.02176e-06
4.54597e-09
9.01981e-06
2.21089e-09
9.01936e-06
1.76838e-09
9.01947e-06
4.39284e-09
9.01865e-06
4.7181e-09
9.01813e-06
6.31027e-09
9.01724e-06
6.81394e-09
9.01674e-06
7.81791e-09
9.01579e-06
7.63674e-09
9.01506e-06
8.59567e-09
9.01401e-06
8.68041e-09
9.01314e-06
9.55698e-09
9.01206e-06
9.92933e-09
9.01114e-06
1.06218e-08
9.01001e-06
1.10202e-08
9.00898e-06
1.16281e-08
9.00774e-06
1.21356e-08
9.0064e-06
1.29191e-08
9.00484e-06
1.36895e-08
9.00333e-06
1.44857e-08
9.00187e-06
1.50701e-08
9.00059e-06
1.55796e-08
8.99943e-06
1.58695e-08
8.99848e-06
1.60843e-08
8.99774e-06
1.60581e-08
8.99739e-06
1.58666e-08
8.99723e-06
1.56087e-08
8.99716e-06
1.52972e-08
8.9971e-06
1.4926e-08
8.99705e-06
1.45418e-08
8.99703e-06
1.41672e-08
8.99707e-06
1.37034e-08
8.99718e-06
1.31628e-08
8.99732e-06
1.26262e-08
8.99745e-06
1.20584e-08
8.99752e-06
1.14676e-08
1.09301e-08
8.99731e-06
9.74012e-06
-2.40591e-08
9.74365e-06
7.31725e-09
9.74038e-06
1.72101e-09
9.74177e-06
3.15334e-09
9.74095e-06
3.02562e-09
9.73975e-06
2.97169e-09
9.73952e-06
4.62663e-09
9.73881e-06
5.42071e-09
9.73833e-06
6.79938e-09
9.73744e-06
7.69554e-09
9.73682e-06
8.44548e-09
9.73587e-06
8.58519e-09
9.73503e-06
9.43214e-09
9.73399e-06
9.7248e-09
9.73302e-06
1.05213e-08
9.73194e-06
1.10138e-08
9.73089e-06
1.16701e-08
9.72966e-06
1.22525e-08
9.72833e-06
1.29581e-08
9.72676e-06
1.36991e-08
9.72521e-06
1.44704e-08
9.72378e-06
1.5126e-08
9.72258e-06
1.56856e-08
9.72158e-06
1.60696e-08
9.72084e-06
1.63143e-08
9.72031e-06
1.64064e-08
9.71996e-06
1.64282e-08
9.71963e-06
1.63915e-08
9.71914e-06
1.63525e-08
9.71863e-06
1.61192e-08
9.71815e-06
1.57833e-08
9.71771e-06
1.53621e-08
9.71738e-06
1.48722e-08
9.71725e-06
1.42918e-08
9.71721e-06
1.37499e-08
9.71716e-06
1.32072e-08
9.71715e-06
1.26427e-08
9.71713e-06
1.2071e-08
9.71709e-06
1.15148e-08
1.09369e-08
9.71708e-06
1.05182e-05
-2.021e-08
1.05214e-05
4.12691e-09
1.05197e-05
3.46501e-09
1.05195e-05
3.36432e-09
1.05189e-05
3.58562e-09
1.05177e-05
4.1912e-09
1.05171e-05
5.25236e-09
1.05163e-05
6.16663e-09
1.05159e-05
7.17709e-09
1.05152e-05
8.43226e-09
1.05145e-05
9.19439e-09
1.05135e-05
9.54803e-09
1.05125e-05
1.03753e-08
1.05115e-05
1.07846e-08
1.05104e-05
1.15749e-08
1.05093e-05
1.2156e-08
1.05081e-05
1.28333e-08
1.05068e-05
1.35893e-08
1.05053e-05
1.44142e-08
1.05038e-05
1.52459e-08
1.05023e-05
1.59259e-08
1.0501e-05
1.6456e-08
1.04998e-05
1.68712e-08
1.04986e-05
1.72436e-08
1.04975e-05
1.74463e-08
1.04964e-05
1.75081e-08
1.04954e-05
1.73892e-08
1.04948e-05
1.70846e-08
1.04945e-05
1.65793e-08
1.04945e-05
1.61208e-08
1.04947e-05
1.56474e-08
1.04948e-05
1.51967e-08
1.0495e-05
1.47407e-08
1.04949e-05
1.4314e-08
1.04949e-05
1.38115e-08
1.04948e-05
1.32633e-08
1.04948e-05
1.26797e-08
1.04948e-05
1.20888e-08
1.04948e-05
1.14865e-08
1.09046e-08
1.04948e-05
1.13585e-05
-1.65511e-08
1.13613e-05
1.35348e-09
1.13602e-05
4.51522e-09
1.13594e-05
4.1599e-09
1.13588e-05
4.19824e-09
1.1358e-05
4.97547e-09
1.13574e-05
5.9337e-09
1.13565e-05
7.03874e-09
1.13558e-05
7.86034e-09
1.1355e-05
9.21487e-09
1.13542e-05
1.00289e-08
1.13532e-05
1.05082e-08
1.13522e-05
1.14053e-08
1.13511e-05
1.18895e-08
1.13499e-05
1.27322e-08
1.13487e-05
1.34126e-08
1.13473e-05
1.42335e-08
1.13457e-05
1.51296e-08
1.13442e-05
1.59394e-08
1.13428e-05
1.66277e-08
1.13416e-05
1.71854e-08
1.13404e-05
1.76286e-08
1.13394e-05
1.78993e-08
1.13385e-05
1.80756e-08
1.13379e-05
1.80783e-08
1.13375e-05
1.79058e-08
1.13372e-05
1.76747e-08
1.13369e-05
1.73695e-08
1.13365e-05
1.6979e-08
1.13361e-05
1.65495e-08
1.13357e-05
1.60831e-08
1.13353e-05
1.55445e-08
1.13351e-05
1.49892e-08
1.1335e-05
1.44363e-08
1.13349e-05
1.38635e-08
1.13349e-05
1.32799e-08
1.13349e-05
1.26741e-08
1.13349e-05
1.2063e-08
1.1335e-05
1.14441e-08
1.08064e-08
1.13351e-05
1.2266e-05
-1.31722e-08
1.22682e-05
-9.08863e-10
1.22676e-05
5.13326e-09
1.22667e-05
5.0751e-09
1.22659e-05
4.96647e-09
1.22652e-05
5.74368e-09
1.22644e-05
6.64451e-09
1.22636e-05
7.89617e-09
1.22628e-05
8.65902e-09
1.22619e-05
1.00494e-08
1.2261e-05
1.09307e-08
1.22601e-05
1.14888e-08
1.2259e-05
1.25059e-08
1.22578e-05
1.30869e-08
1.22565e-05
1.40219e-08
1.2255e-05
1.48731e-08
1.22535e-05
1.5787e-08
1.22519e-05
1.66648e-08
1.22505e-05
1.73357e-08
1.22493e-05
1.78592e-08
1.22483e-05
1.82118e-08
1.22474e-05
1.84944e-08
1.22467e-05
1.8619e-08
1.22461e-05
1.8656e-08
1.22456e-05
1.85594e-08
1.22451e-05
1.84772e-08
1.22445e-05
1.82075e-08
1.2244e-05
1.78654e-08
1.22436e-05
1.74409e-08
1.22432e-05
1.69518e-08
1.22429e-05
1.63949e-08
1.22426e-05
1.5778e-08
1.22425e-05
1.51489e-08
1.22424e-05
1.45415e-08
1.22423e-05
1.39202e-08
1.22423e-05
1.32963e-08
1.22423e-05
1.26625e-08
1.22423e-05
1.2032e-08
1.22424e-05
1.14019e-08
1.07682e-08
1.22424e-05
1.32459e-05
-1.01314e-08
1.32476e-05
-2.59756e-09
1.32473e-05
5.39484e-09
1.32464e-05
5.95293e-09
1.32456e-05
5.85492e-09
1.32447e-05
6.59799e-09
1.32439e-05
7.41869e-09
1.32431e-05
8.75876e-09
1.32422e-05
9.50192e-09
1.32414e-05
1.09118e-08
1.32404e-05
1.19118e-08
1.32393e-05
1.25325e-08
1.32382e-05
1.3669e-08
1.32369e-05
1.44017e-08
1.32354e-05
1.55143e-08
1.32338e-05
1.64648e-08
1.32322e-05
1.73179e-08
1.32309e-05
1.79866e-08
1.32297e-05
1.85451e-08
1.32285e-05
1.90388e-08
1.32274e-05
1.93556e-08
1.32263e-05
1.96045e-08
1.32252e-05
1.96969e-08
1.32242e-05
1.96418e-08
1.32234e-05
1.93467e-08
1.3223e-05
1.8923e-08
1.32227e-05
1.84762e-08
1.32226e-05
1.79918e-08
1.32225e-05
1.74765e-08
1.32225e-05
1.69511e-08
1.32225e-05
1.64025e-08
1.32224e-05
1.58664e-08
1.32223e-05
1.52568e-08
1.32223e-05
1.46172e-08
1.32222e-05
1.39565e-08
1.32222e-05
1.32945e-08
1.32223e-05
1.26294e-08
1.32223e-05
1.19752e-08
1.32224e-05
1.13286e-08
1.0718e-08
1.32224e-05
1.43041e-05
-7.52015e-09
1.4305e-05
-3.49189e-09
1.43052e-05
5.25875e-09
1.43044e-05
6.66275e-09
1.43035e-05
6.82216e-09
1.43025e-05
7.54336e-09
1.43017e-05
8.29701e-09
1.43007e-05
9.67158e-09
1.42999e-05
1.0386e-08
1.4299e-05
1.17797e-08
1.4298e-05
1.29074e-08
1.42969e-05
1.36465e-08
1.42955e-05
1.5052e-08
1.42939e-05
1.59941e-08
1.42923e-05
1.71288e-08
1.42908e-05
1.79946e-08
1.42894e-05
1.86625e-08
1.42882e-05
1.92007e-08
1.42871e-05
1.96077e-08
1.42863e-05
1.98906e-08
1.42856e-05
2.00238e-08
1.42851e-05
2.00745e-08
1.42848e-05
2.00372e-08
1.42845e-05
1.99403e-08
1.4284e-05
1.98608e-08
1.42833e-05
1.96004e-08
1.42826e-05
1.91894e-08
1.42819e-05
1.86518e-08
1.42814e-05
1.80214e-08
1.4281e-05
1.73523e-08
1.42807e-05
1.66623e-08
1.42807e-05
1.59557e-08
1.42806e-05
1.52795e-08
1.42806e-05
1.46099e-08
1.42807e-05
1.393e-08
1.42807e-05
1.32553e-08
1.42808e-05
1.2571e-08
1.42808e-05
1.18991e-08
1.42809e-05
1.12504e-08
1.0582e-08
1.4281e-05
1.54469e-05
-5.37767e-09
1.54463e-05
-2.94569e-09
1.54472e-05
4.33727e-09
1.54469e-05
6.96764e-09
1.54459e-05
7.823e-09
1.54449e-05
8.60603e-09
1.54439e-05
9.29234e-09
1.54429e-05
1.06537e-08
1.54419e-05
1.13377e-08
1.54409e-05
1.28603e-08
1.54395e-05
1.42281e-08
1.5438e-05
1.51642e-08
1.54365e-05
1.65547e-08
1.54351e-05
1.74141e-08
1.54338e-05
1.84069e-08
1.54326e-05
1.91838e-08
1.54315e-05
1.98119e-08
1.54304e-05
2.02838e-08
1.54293e-05
2.06701e-08
1.54283e-05
2.09435e-08
1.54272e-05
2.10674e-08
1.54263e-05
2.10536e-08
1.54254e-05
2.09255e-08
1.54246e-05
2.06777e-08
1.54242e-05
2.03116e-08
1.5424e-05
1.97842e-08
1.54239e-05
1.92548e-08
1.54239e-05
1.86726e-08
1.54239e-05
1.80443e-08
1.54238e-05
1.73908e-08
1.54238e-05
1.67083e-08
1.54237e-05
1.60147e-08
1.54237e-05
1.53035e-08
1.54237e-05
1.4595e-08
1.54238e-05
1.38808e-08
1.54239e-05
1.3177e-08
1.5424e-05
1.24764e-08
1.54241e-05
1.1794e-08
1.54242e-05
1.11241e-08
1.04635e-08
1.54243e-05
1.66808e-05
-3.69872e-09
1.66797e-05
-1.88871e-09
1.66805e-05
3.53965e-09
1.66805e-05
7.01928e-09
1.66796e-05
8.72678e-09
1.66784e-05
9.74588e-09
1.66772e-05
1.04849e-08
1.66759e-05
1.19834e-08
1.66746e-05
1.26756e-08
1.66733e-05
1.41248e-08
1.66721e-05
1.54752e-08
1.66708e-05
1.64281e-08
1.66696e-05
1.7755e-08
1.66683e-05
1.86884e-08
1.66671e-05
1.96147e-08
1.66659e-05
2.0346e-08
1.66648e-05
2.0946e-08
1.66637e-05
2.13693e-08
1.66627e-05
2.16863e-08
1.66619e-05
2.17966e-08
1.66611e-05
2.18081e-08
1.66605e-05
2.16644e-08
1.666e-05
2.14311e-08
1.66596e-05
2.10802e-08
1.66593e-05
2.06577e-08
1.66588e-05
2.01949e-08
1.66585e-05
1.95767e-08
1.66583e-05
1.88935e-08
1.66582e-05
1.81742e-08
1.66581e-05
1.745e-08
1.66581e-05
1.67136e-08
1.66581e-05
1.59845e-08
1.66582e-05
1.52489e-08
1.66583e-05
1.45218e-08
1.66584e-05
1.37882e-08
1.66585e-05
1.30642e-08
1.66586e-05
1.23482e-08
1.66587e-05
1.16663e-08
1.66589e-05
1.09936e-08
1.03156e-08
1.6659e-05
1.8013e-05
-2.32226e-09
1.8012e-05
-8.95423e-10
1.8012e-05
3.5267e-09
1.80122e-05
6.84069e-09
1.80116e-05
9.34486e-09
1.80105e-05
1.08187e-08
1.80093e-05
1.17559e-08
1.80079e-05
1.33499e-08
1.80065e-05
1.40832e-08
1.80052e-05
1.5436e-08
1.80039e-05
1.67644e-08
1.80026e-05
1.7716e-08
1.80014e-05
1.89441e-08
1.80002e-05
1.98969e-08
1.7999e-05
2.07822e-08
1.79979e-05
2.14496e-08
1.79969e-05
2.20182e-08
1.79959e-05
2.23452e-08
1.79949e-05
2.26167e-08
1.79941e-05
2.26884e-08
1.79932e-05
2.26751e-08
1.79924e-05
2.24551e-08
1.79917e-05
2.21255e-08
1.79912e-05
2.16262e-08
1.79909e-05
2.09618e-08
1.79908e-05
2.02338e-08
1.79909e-05
1.94937e-08
1.7991e-05
1.87671e-08
1.79912e-05
1.80496e-08
1.79912e-05
1.73528e-08
1.79913e-05
1.66493e-08
1.79914e-05
1.59163e-08
1.79915e-05
1.51619e-08
1.79916e-05
1.4414e-08
1.79917e-05
1.36523e-08
1.79919e-05
1.29192e-08
1.7992e-05
1.21967e-08
1.79922e-05
1.15014e-08
1.79923e-05
1.08226e-08
1.0157e-08
1.79925e-05
1.94516e-05
-1.24536e-09
1.94506e-05
1.23215e-10
1.94501e-05
4.03641e-09
1.94502e-05
6.70053e-09
1.94499e-05
9.67967e-09
1.9449e-05
1.17353e-08
1.94477e-05
1.29901e-08
1.94464e-05
1.47273e-08
1.94449e-05
1.5544e-08
1.94435e-05
1.68064e-08
1.94422e-05
1.80656e-08
1.94409e-05
1.90115e-08
1.94397e-05
2.01241e-08
1.94386e-05
2.10566e-08
1.94375e-05
2.19158e-08
1.94364e-05
2.24911e-08
1.94354e-05
2.30251e-08
1.94345e-05
2.3252e-08
1.94337e-05
2.34497e-08
1.9433e-05
2.33795e-08
1.94324e-05
2.32163e-08
1.9432e-05
2.28529e-08
1.94318e-05
2.24021e-08
1.94316e-05
2.18034e-08
1.94314e-05
2.1126e-08
1.94312e-05
2.04041e-08
1.94311e-05
1.96242e-08
1.9431e-05
1.88447e-08
1.9431e-05
1.80678e-08
1.94311e-05
1.73123e-08
1.94312e-05
1.65486e-08
1.94313e-05
1.5793e-08
1.94314e-05
1.50161e-08
1.94316e-05
1.42494e-08
1.94318e-05
1.34847e-08
1.94319e-05
1.27444e-08
1.94321e-05
1.20156e-08
1.94323e-05
1.13173e-08
1.94325e-05
1.06384e-08
9.97584e-09
1.94327e-05
2.1005e-05
-4.20711e-10
2.10039e-05
1.18669e-09
2.10033e-05
4.61488e-09
2.1003e-05
6.98919e-09
2.10028e-05
9.96185e-09
2.10021e-05
1.23717e-08
2.10011e-05
1.40486e-08
2.09998e-05
1.60199e-08
2.09984e-05
1.69484e-08
2.09969e-05
1.82446e-08
2.09956e-05
1.93903e-08
2.09943e-05
2.03614e-08
2.09931e-05
2.133e-08
2.09919e-05
2.21639e-08
2.09909e-05
2.29766e-08
2.09899e-05
2.34413e-08
2.0989e-05
2.39115e-08
2.09883e-05
2.40234e-08
2.09876e-05
2.41273e-08
2.0987e-05
2.39471e-08
2.09865e-05
2.37117e-08
2.09862e-05
2.32391e-08
2.09859e-05
2.26603e-08
2.09858e-05
2.19047e-08
2.09858e-05
2.11281e-08
2.09859e-05
2.03414e-08
2.09859e-05
1.95725e-08
2.0986e-05
1.87959e-08
2.0986e-05
1.80079e-08
2.09861e-05
1.72276e-08
2.09862e-05
1.64181e-08
2.09864e-05
1.56297e-08
2.09866e-05
1.48341e-08
2.09868e-05
1.40579e-08
2.0987e-05
1.32848e-08
2.09872e-05
1.25397e-08
2.09874e-05
1.18085e-08
2.09876e-05
1.11106e-08
2.09878e-05
1.04336e-08
9.77456e-09
2.0988e-05
2.26823e-05
2.06012e-10
2.26813e-05
2.23308e-09
2.26806e-05
5.30597e-09
2.268e-05
7.53587e-09
2.26796e-05
1.03957e-08
2.26791e-05
1.28413e-08
2.26783e-05
1.48671e-08
2.26772e-05
1.71327e-08
2.26759e-05
1.82063e-08
2.26745e-05
1.96158e-08
2.26732e-05
2.07634e-08
2.26718e-05
2.1743e-08
2.26706e-05
2.25607e-08
2.26695e-05
2.32225e-08
2.26685e-05
2.39353e-08
2.26677e-05
2.4277e-08
2.2667e-05
2.46512e-08
2.26663e-05
2.46533e-08
2.26658e-05
2.46599e-08
2.26654e-05
2.43537e-08
2.26651e-05
2.39913e-08
2.2665e-05
2.33881e-08
2.26649e-05
2.26991e-08
2.26649e-05
2.1903e-08
2.2665e-05
2.1097e-08
2.2665e-05
2.02891e-08
2.26651e-05
1.95019e-08
2.26652e-05
1.87026e-08
2.26653e-05
1.7887e-08
2.26655e-05
1.70641e-08
2.26656e-05
1.62389e-08
2.26658e-05
1.543e-08
2.26661e-05
1.46175e-08
2.26663e-05
1.38301e-08
2.26665e-05
1.30506e-08
2.26668e-05
1.23033e-08
2.2667e-05
1.15727e-08
2.26672e-05
1.08775e-08
2.26675e-05
1.02045e-08
9.55246e-09
2.26677e-05
2.44934e-05
7.16573e-10
2.44925e-05
3.12708e-09
2.44917e-05
6.1604e-09
2.44909e-05
8.3074e-09
2.44902e-05
1.11608e-08
2.44896e-05
1.33923e-08
2.4489e-05
1.54294e-08
2.44882e-05
1.79503e-08
2.44872e-05
1.92397e-08
2.4486e-05
2.08455e-08
2.44846e-05
2.20822e-08
2.44833e-05
2.30767e-08
2.44821e-05
2.3748e-08
2.44812e-05
2.41748e-08
2.44804e-05
2.4733e-08
2.44797e-05
2.4966e-08
2.44791e-05
2.52179e-08
2.44787e-05
2.50853e-08
2.44784e-05
2.49695e-08
2.44782e-05
2.45569e-08
2.44781e-05
2.40615e-08
2.44781e-05
2.33704e-08
2.44782e-05
2.26451e-08
2.44782e-05
2.18418e-08
2.44783e-05
2.10471e-08
2.44784e-05
2.02137e-08
2.44785e-05
1.93776e-08
2.44786e-05
1.85418e-08
2.44788e-05
1.7694e-08
2.4479e-05
1.68548e-08
2.44793e-05
1.60076e-08
2.44795e-05
1.51745e-08
2.44798e-05
1.43515e-08
2.44801e-05
1.35651e-08
2.44803e-05
1.27764e-08
2.44806e-05
1.20301e-08
2.44809e-05
1.131e-08
2.44811e-05
1.06232e-08
2.44814e-05
9.95959e-09
9.30338e-09
2.44816e-05
2.64492e-05
1.12559e-09
2.64484e-05
3.90276e-09
2.64475e-05
7.0522e-09
2.64466e-05
9.21131e-09
2.64456e-05
1.21534e-08
2.64446e-05
1.44085e-08
2.64436e-05
1.63855e-08
2.64427e-05
1.8899e-08
2.64418e-05
2.01537e-08
2.64409e-05
2.16923e-08
2.64401e-05
2.29e-08
2.64393e-05
2.38939e-08
2.64384e-05
2.46073e-08
2.64376e-05
2.49401e-08
2.6437e-05
2.53578e-08
2.64366e-05
2.54243e-08
2.64362e-05
2.55427e-08
2.64361e-05
2.52579e-08
2.6436e-05
2.5016e-08
2.64361e-05
2.45027e-08
2.64361e-05
2.40088e-08
2.64361e-05
2.33503e-08
2.64362e-05
2.26141e-08
2.64363e-05
2.17679e-08
2.64364e-05
2.09147e-08
2.64366e-05
2.00224e-08
2.64368e-05
1.91569e-08
2.6437e-05
1.82932e-08
2.64373e-05
1.74225e-08
2.64376e-05
1.65646e-08
2.64379e-05
1.57043e-08
2.64382e-05
1.48694e-08
2.64385e-05
1.40416e-08
2.64388e-05
1.32475e-08
2.64392e-05
1.24688e-08
2.64395e-05
1.1728e-08
2.64398e-05
1.10086e-08
2.64401e-05
1.03284e-08
2.64403e-05
9.67289e-09
9.04287e-09
2.64406e-05
2.8561e-05
1.45992e-09
2.85603e-05
4.58579e-09
2.85594e-05
7.91742e-09
2.85585e-05
1.01744e-08
2.85575e-05
1.31191e-08
2.85565e-05
1.54287e-08
2.85556e-05
1.73007e-08
2.85547e-05
1.98073e-08
2.85538e-05
2.10499e-08
2.8553e-05
2.24722e-08
2.85523e-05
2.36136e-08
2.85516e-05
2.4534e-08
2.8551e-05
2.52116e-08
2.85505e-05
2.54961e-08
2.855e-05
2.58191e-08
2.85497e-05
2.57665e-08
2.85494e-05
2.58022e-08
2.85493e-05
2.54041e-08
2.85492e-05
2.50603e-08
2.85493e-05
2.44242e-08
2.85495e-05
2.3829e-08
2.85498e-05
2.3039e-08
2.85501e-05
2.22562e-08
2.85505e-05
2.13965e-08
2.85509e-05
2.05527e-08
2.85512e-05
1.96843e-08
2.85516e-05
1.88144e-08
2.85519e-05
1.79423e-08
2.85523e-05
1.70617e-08
2.85526e-05
1.61968e-08
2.8553e-05
1.53318e-08
2.85534e-05
1.44974e-08
2.85538e-05
1.3673e-08
2.85541e-05
1.28867e-08
2.85545e-05
1.21177e-08
2.85548e-05
1.13892e-08
2.85551e-05
1.06824e-08
2.85554e-05
1.00162e-08
2.85557e-05
9.37481e-09
8.78745e-09
2.8556e-05
3.08414e-05
1.7386e-09
3.08408e-05
5.16308e-09
3.084e-05
8.75015e-09
3.0839e-05
1.11362e-08
3.08381e-05
1.40297e-08
3.08371e-05
1.64222e-08
3.08363e-05
1.81736e-08
3.08355e-05
2.05836e-08
3.08346e-05
2.18788e-08
3.0834e-05
2.31488e-08
3.08334e-05
2.4181e-08
3.08329e-05
2.50128e-08
3.08325e-05
2.56057e-08
3.08322e-05
2.57864e-08
3.0832e-05
2.60157e-08
3.0832e-05
2.58213e-08
3.0832e-05
2.57703e-08
3.08321e-05
2.52819e-08
3.08323e-05
2.48667e-08
3.08326e-05
2.41509e-08
3.08329e-05
2.34958e-08
3.08333e-05
2.26712e-08
3.08337e-05
2.18671e-08
3.08341e-05
2.09879e-08
3.08345e-05
2.01226e-08
3.0835e-05
1.92444e-08
3.08354e-05
1.83648e-08
3.08359e-05
1.74898e-08
3.08363e-05
1.66043e-08
3.08368e-05
1.57405e-08
3.08372e-05
1.4877e-08
3.08377e-05
1.40501e-08
3.08381e-05
1.32347e-08
3.08386e-05
1.24627e-08
3.0839e-05
1.17112e-08
3.08393e-05
1.10124e-08
3.08397e-05
1.03228e-08
3.084e-05
9.6744e-09
3.08404e-05
9.04993e-09
8.47664e-09
3.08407e-05
3.33039e-05
1.92602e-09
3.33034e-05
5.70796e-09
3.33026e-05
9.47679e-09
3.33017e-05
1.21073e-08
3.33009e-05
1.48455e-08
3.32999e-05
1.73354e-08
3.32992e-05
1.89503e-08
3.32985e-05
2.12115e-08
3.32979e-05
2.25649e-08
3.32973e-05
2.37372e-08
3.32968e-05
2.46476e-08
3.32964e-05
2.54e-08
3.32961e-05
2.59133e-08
3.32959e-05
2.5968e-08
3.32958e-05
2.60928e-08
3.32959e-05
2.57485e-08
3.32961e-05
2.55604e-08
3.32965e-05
2.4948e-08
3.32969e-05
2.44142e-08
3.32975e-05
2.35975e-08
3.32981e-05
2.28439e-08
3.32988e-05
2.19548e-08
3.32995e-05
2.11813e-08
3.33001e-05
2.03664e-08
3.33007e-05
1.95425e-08
3.33013e-05
1.87128e-08
3.33018e-05
1.78433e-08
3.33023e-05
1.6968e-08
3.33028e-05
1.60778e-08
3.33034e-05
1.52002e-08
3.33039e-05
1.43348e-08
3.33044e-05
1.35225e-08
3.33049e-05
1.27249e-08
3.33054e-05
1.1975e-08
3.33059e-05
1.12436e-08
3.33064e-05
1.05576e-08
3.33068e-05
9.89273e-09
3.33072e-05
9.27008e-09
3.33076e-05
8.67054e-09
8.10059e-09
3.33079e-05
3.5963e-05
2.09813e-09
3.59625e-05
6.208e-09
3.59618e-05
1.01643e-08
3.59609e-05
1.30027e-08
3.59602e-05
1.55296e-08
3.59595e-05
1.80688e-08
3.59587e-05
1.96611e-08
3.59583e-05
2.16885e-08
3.59578e-05
2.30742e-08
3.59574e-05
2.41298e-08
3.59571e-05
2.4874e-08
3.59571e-05
2.54451e-08
3.59572e-05
2.58412e-08
3.59574e-05
2.57167e-08
3.59578e-05
2.56863e-08
3.59584e-05
2.51869e-08
3.59591e-05
2.48608e-08
3.59599e-05
2.41776e-08
3.59607e-05
2.36125e-08
3.59614e-05
2.28476e-08
3.5962e-05
2.22477e-08
3.59625e-05
2.14914e-08
3.59629e-05
2.07278e-08
3.59634e-05
1.99e-08
3.59639e-05
1.90258e-08
3.59645e-05
1.81218e-08
3.59652e-05
1.71583e-08
3.59659e-05
1.62657e-08
3.59666e-05
1.5394e-08
3.59672e-05
1.46028e-08
3.59677e-05
1.37863e-08
3.59682e-05
1.30134e-08
3.59687e-05
1.22497e-08
3.59691e-05
1.15315e-08
3.59696e-05
1.08289e-08
3.59699e-05
1.01698e-08
3.59703e-05
9.52988e-09
3.59706e-05
8.93045e-09
3.5971e-05
8.35229e-09
7.8199e-09
3.59712e-05
3.88347e-05
1.84652e-09
3.88333e-05
7.60027e-09
3.88333e-05
1.02033e-08
3.88321e-05
1.41412e-08
3.88321e-05
1.55642e-08
3.88313e-05
1.88865e-08
3.88311e-05
1.98933e-08
3.88304e-05
2.23282e-08
3.88303e-05
2.3228e-08
3.88297e-05
2.46978e-08
3.88296e-05
2.49607e-08
3.88293e-05
2.57431e-08
3.88294e-05
2.57936e-08
3.88292e-05
2.58638e-08
3.88294e-05
2.55289e-08
3.88294e-05
2.515e-08
3.88297e-05
2.45455e-08
3.883e-05
2.39069e-08
3.88305e-05
2.3068e-08