/*--------------------------------*- C++ -*----------------------------------*\
| =========                 |                                                 |
| \\      /  F ield         | OpenFOAM: The Open Source CFD Toolbox           |
|  \\    /   O peration     | Version:  2312                                  |
|   \\  /    A nd           | Website:  www.openfoam.com                      |
|    \\/     M anipulation  |                                                 |
\*---------------------------------------------------------------------------*/
FoamFile
{
    version     2.0;
    format      ascii;
    arch        "LSB;label=32;scalar=64";
    class       volVectorField;
    location    "0.85";
    object      U;
}
// * * * * * * * * * * * * * * * * * * * * * * * * * * * * * * * * * * * * * //

dimensions      [0 1 -1 0 0 0 0];

internalField   nonuniform List<vector> 
5600
(
(0.971762 -0.000843981 0)
(1.02744 0.000718218 0)
(0.974357 -0.000663325 0)
(1.02495 0.000615621 0)
(0.976907 -0.000540266 0)
(1.02253 0.000467937 0)
(0.979243 -0.000441186 0)
(1.0202 0.000371209 0)
(0.98137 -0.000327321 0)
(1.01796 0.000313944 0)
(0.983237 -0.00021344 0)
(1.01583 0.000270868 0)
(0.984903 -0.00014722 0)
(1.01384 0.000222612 0)
(0.986387 -9.80069e-05 0)
(1.01197 0.000201699 0)
(0.987667 -4.36364e-05 0)
(1.01022 0.000208798 0)
(0.98877 5.58456e-06 0)
(1.0086 0.000218602 0)
(0.989705 3.71659e-05 0)
(1.00709 0.00022329 0)
(0.990472 6.91265e-05 0)
(1.00568 0.000237615 0)
(0.991079 0.000115433 0)
(1.00436 0.000267096 0)
(0.991535 0.000170653 0)
(1.00311 0.000304784 0)
(0.991847 0.000227884 0)
(1.00192 0.000347134 0)
(0.992017 0.00029373 0)
(1.00077 0.000420499 0)
(0.992036 0.000426845 0)
(0.999629 0.000617315 0)
(0.991944 0.000720232 0)
(0.998566 0.000978275 0)
(0.991811 0.00115492 0)
(0.997587 0.00150203 0)
(0.991704 0.00185202 0)
(0.997053 0.00242141 0)
(0.987378 -0.000863 0)
(1.01104 0.000707046 0)
(0.98984 -0.000655741 0)
(1.0091 0.000601931 0)
(0.991984 -0.000525176 0)
(1.00735 0.000446014 0)
(0.993683 -0.000410821 0)
(1.00576 0.000345998 0)
(0.995017 -0.000282509 0)
(1.0044 0.000292516 0)
(0.995967 -0.000156922 0)
(1.00323 0.000252343 0)
(0.996682 -8.54624e-05 0)
(1.00224 0.000211093 0)
(0.997179 -3.06497e-05 0)
(1.00135 0.000204763 0)
(0.997458 2.93474e-05 0)
(1.00056 0.000226382 0)
(0.997592 8.36452e-05 0)
(0.99986 0.000250014 0)
(0.997611 0.000124821 0)
(0.999238 0.000272136 0)
(0.997525 0.000169076 0)
(0.998658 0.000308925 0)
(0.997348 0.000234485 0)
(0.9981 0.000366333 0)
(0.997086 0.000315292 0)
(0.997546 0.000438911 0)
(0.996748 0.00041052 0)
(0.996987 0.000535794 0)
(0.996349 0.000544358 0)
(0.996429 0.000701093 0)
(0.995925 0.000789967 0)
(0.995903 0.00103571 0)
(0.995503 0.00123637 0)
(0.995412 0.0015682 0)
(0.995137 0.00185784 0)
(0.995104 0.0022995 0)
(0.99512 0.0027738 0)
(0.995472 0.00343782 0)
(0.996954 -0.000775581 0)
(1.002 0.000597166 0)
(0.997653 -0.000558004 0)
(1.00137 0.000492492 0)
(0.998311 -0.000425213 0)
(1.00084 0.000341123 0)
(0.998702 -0.000307299 0)
(1.00033 0.000245893 0)
(0.998904 -0.000184005 0)
(0.999943 0.000202972 0)
(0.998934 -6.38356e-05 0)
(0.999611 0.000169873 0)
(0.998902 1.30126e-06 0)
(0.999326 0.000141253 0)
(0.998799 5.5163e-05 0)
(0.998995 0.000150114 0)
(0.99859 0.000106115 0)
(0.998648 0.000182094 0)
(0.998333 0.0001477 0)
(0.998303 0.000213271 0)
(0.998046 0.000190927 0)
(0.997954 0.000247712 0)
(0.997725 0.000240268 0)
(0.997589 0.000297056 0)
(0.99737 0.000306397 0)
(0.997198 0.000367014 0)
(0.996976 0.000391139 0)
(0.996776 0.000456971 0)
(0.99655 0.00049939 0)
(0.996332 0.000588409 0)
(0.996102 0.000681026 0)
(0.99588 0.000830033 0)
(0.995664 0.00098343 0)
(0.995451 0.00117291 0)
(0.995245 0.00136197 0)
(0.995052 0.00159386 0)
(0.994907 0.00184433 0)
(0.994838 0.00214518 0)
(0.994917 0.00246429 0)
(0.995242 0.00281114 0)
(0.999569 -0.000768039 0)
(0.999851 0.000587114 0)
(0.999413 -0.000536501 0)
(0.999755 0.000480663 0)
(0.999504 -0.000403927 0)
(0.999641 0.000327722 0)
(0.999456 -0.000276691 0)
(0.999428 0.000236469 0)
(0.999315 -0.000150068 0)
(0.999241 0.00019836 0)
(0.99913 -2.94362e-05 0)
(0.999076 0.000169691 0)
(0.998961 3.42268e-05 0)
(0.998891 0.000148686 0)
(0.998766 9.48774e-05 0)
(0.998645 0.000173046 0)
(0.998507 0.0001515 0)
(0.998361 0.000218101 0)
(0.998215 0.000202117 0)
(0.998053 0.000261058 0)
(0.997898 0.000252356 0)
(0.997721 0.000308242 0)
(0.997552 0.000315026 0)
(0.997362 0.000374297 0)
(0.997178 0.000399207 0)
(0.996974 0.000467141 0)
(0.996771 0.000512132 0)
(0.996555 0.000595119 0)
(0.996345 0.000667222 0)
(0.996135 0.000778975 0)
(0.995938 0.00089655 0)
(0.995739 0.0010632 0)
(0.995546 0.00123752 0)
(0.995353 0.00144227 0)
(0.995181 0.00165073 0)
(0.99504 0.00189787 0)
(0.994962 0.00216501 0)
(0.994974 0.00247428 0)
(0.995134 0.00279969 0)
(0.995532 0.00314715 0)
(0.999976 -0.000701051 0)
(0.99958 0.000515829 0)
(0.99965 -0.000457652 0)
(0.999558 0.000401701 0)
(0.999647 -0.000325689 0)
(0.999533 0.000253465 0)
(0.999527 -0.000193619 0)
(0.999366 0.000169019 0)
(0.999339 -7.16387e-05 0)
(0.999181 0.000141773 0)
(0.999105 3.95805e-05 0)
(0.999015 0.00012576 0)
(0.998936 9.14358e-05 0)
(0.998826 0.00012807 0)
(0.99873 0.000127074 0)
(0.9986 0.000173655 0)
(0.998479 0.000183815 0)
(0.99834 0.000229067 0)
(0.998203 0.000242457 0)
(0.998046 0.000281462 0)
(0.997895 0.000301001 0)
(0.997719 0.000343033 0)
(0.997549 0.000373866 0)
(0.997357 0.000425481 0)
(0.99717 0.000471701 0)
(0.996964 0.000537433 0)
(0.996763 0.000602963 0)
(0.996552 0.00069207 0)
(0.996349 0.000795014 0)
(0.996146 0.000931091 0)
(0.99596 0.00107829 0)
(0.995779 0.00124508 0)
(0.995606 0.00141625 0)
(0.995437 0.00160524 0)
(0.99529 0.00180164 0)
(0.995179 0.00201701 0)
(0.99513 0.00223942 0)
(0.995167 0.00247442 0)
(0.995339 0.00270675 0)
(0.995733 0.00293697 0)
(1.00001 -0.000685848 0)
(0.999574 0.000497975 0)
(0.999695 -0.000423611 0)
(0.999537 0.00037794 0)
(0.999645 -0.000295136 0)
(0.999543 0.00023102 0)
(0.999529 -0.000151799 0)
(0.99939 0.000154199 0)
(0.999351 -2.73839e-05 0)
(0.999204 0.000136066 0)
(0.999102 7.56349e-05 0)
(0.999005 0.000122086 0)
(0.998934 0.000119787 0)
(0.998813 0.000141779 0)
(0.99872 0.000156169 0)
(0.998597 0.000198707 0)
(0.99848 0.000224298 0)
(0.99835 0.000263313 0)
(0.99822 0.000291075 0)
(0.998072 0.000326932 0)
(0.997928 0.00036116 0)
(0.997758 0.000404296 0)
(0.997592 0.000449844 0)
(0.997405 0.000506532 0)
(0.99722 0.000569872 0)
(0.997018 0.000647113 0)
(0.996821 0.000735985 0)
(0.99662 0.000842058 0)
(0.996436 0.000964397 0)
(0.996255 0.00110902 0)
(0.996084 0.00127318 0)
(0.995912 0.00144655 0)
(0.995749 0.00162196 0)
(0.995596 0.00180271 0)
(0.995469 0.00198944 0)
(0.99538 0.00218322 0)
(0.995353 0.00237953 0)
(0.995414 0.00257646 0)
(0.995608 0.00276921 0)
(0.996023 0.00295714 0)
(1 -0.000622802 0)
(0.99958 0.000429316 0)
(0.999723 -0.000344718 0)
(0.999551 0.000309253 0)
(0.999628 -0.000225117 0)
(0.999548 0.000164759 0)
(0.999522 -7.90004e-05 0)
(0.999407 9.9347e-05 0)
(0.999359 3.88392e-05 0)
(0.999228 0.000109294 0)
(0.999125 0.000123909 0)
(0.99901 0.000116371 0)
(0.998938 0.000138057 0)
(0.998816 0.000151511 0)
(0.998718 0.000183615 0)
(0.998597 0.000217202 0)
(0.998485 0.000255948 0)
(0.998356 0.00028853 0)
(0.998232 0.000329434 0)
(0.998089 0.000363993 0)
(0.99795 0.000410435 0)
(0.99779 0.000457913 0)
(0.997628 0.000515725 0)
(0.997452 0.000580371 0)
(0.997274 0.000658476 0)
(0.997087 0.000749393 0)
(0.996903 0.000858954 0)
(0.996716 0.000986179 0)
(0.996543 0.00113288 0)
(0.996378 0.00128888 0)
(0.996224 0.00145186 0)
(0.996069 0.00161753 0)
(0.99592 0.00178685 0)
(0.995783 0.00195917 0)
(0.995672 0.00213421 0)
(0.995599 0.00230981 0)
(0.995583 0.00248129 0)
(0.995649 0.00264476 0)
(0.995844 0.00279419 0)
(0.99626 0.00292735 0)
(1 -0.00059499 0)
(0.999584 0.000395584 0)
(0.999731 -0.000298161 0)
(0.999587 0.000277112 0)
(0.999625 -0.000183014 0)
(0.999549 0.000133983 0)
(0.999514 -3.15029e-05 0)
(0.999417 8.24011e-05 0)
(0.999358 7.93218e-05 0)
(0.999244 0.000106268 0)
(0.999158 0.000150138 0)
(0.999035 0.000126534 0)
(0.998949 0.000166008 0)
(0.998834 0.000170312 0)
(0.998727 0.000217867 0)
(0.998602 0.000241701 0)
(0.998495 0.000295888 0)
(0.998363 0.000321062 0)
(0.998243 0.000377797 0)
(0.998102 0.000408168 0)
(0.997966 0.000470963 0)
(0.997813 0.000518706 0)
(0.997656 0.00059421 0)
(0.997492 0.000660646 0)
(0.997326 0.000757928 0)
(0.997154 0.000855892 0)
(0.996988 0.000992918 0)
(0.996825 0.001135 0)
(0.996676 0.00130564 0)
(0.996525 0.00146989 0)
(0.996381 0.00164263 0)
(0.996235 0.00180352 0)
(0.996101 0.00197186 0)
(0.995978 0.00213006 0)
(0.995882 0.00228841 0)
(0.995819 0.00242896 0)
(0.995807 0.00255865 0)
(0.995869 0.00266402 0)
(0.996051 0.002755 0)
(0.996441 0.00283028 0)
(1.00001 -0.000532898 0)
(0.999591 0.000328706 0)
(0.999723 -0.000224474 0)
(0.99962 0.000218076 0)
(0.999641 -0.000117856 0)
(0.999553 8.00497e-05 0)
(0.999511 2.64076e-05 0)
(0.999419 4.89318e-05 0)
(0.999355 0.000123589 0)
(0.999251 0.000109026 0)
(0.99918 0.00017248 0)
(0.999066 0.000134206 0)
(0.998967 0.000201439 0)
(0.998858 0.000181788 0)
(0.998745 0.000257264 0)
(0.998617 0.000258378 0)
(0.998512 0.000341509 0)
(0.998378 0.000346309 0)
(0.99826 0.000432114 0)
(0.998118 0.000445133 0)
(0.997984 0.000537735 0)
(0.997834 0.000572684 0)
(0.997686 0.000680705 0)
(0.99753 0.000740518 0)
(0.997381 0.000874819 0)
(0.997233 0.000974483 0)
(0.997094 0.00114637 0)
(0.996951 0.0012814 0)
(0.996815 0.00146358 0)
(0.996676 0.00160661 0)
(0.996543 0.00179284 0)
(0.99641 0.00195385 0)
(0.996284 0.00215716 0)
(0.996164 0.00233608 0)
(0.996059 0.00253667 0)
(0.995978 0.00269461 0)
(0.99594 0.00285125 0)
(0.995974 0.00294557 0)
(0.996145 0.0029874 0)
(0.996576 0.00286998 0)
(1.00002 -0.000494829 0)
(0.999602 0.000286649 0)
(0.999719 -0.000172641 0)
(0.999641 0.0001769 0)
(0.999662 -6.7083e-05 0)
(0.999561 5.49789e-05 0)
(0.999516 6.8199e-05 0)
(0.999422 4.40973e-05 0)
(0.999364 0.000136243 0)
(0.999256 0.000120303 0)
(0.999198 0.000190687 0)
(0.999088 0.000155293 0)
(0.99899 0.00022908 0)
(0.99888 0.000208906 0)
(0.998771 0.000291684 0)
(0.998637 0.000292205 0)
(0.998537 0.00038137 0)
(0.998399 0.000389059 0)
(0.998287 0.000481314 0)
(0.998141 0.000500555 0)
(0.998016 0.000600855 0)
(0.997865 0.000644345 0)
(0.997732 0.000764887 0)
(0.997585 0.000843487 0)
(0.99746 0.0010011 0)
(0.997326 0.00111566 0)
(0.997205 0.00128654 0)
(0.997072 0.00141022 0)
(0.996952 0.00158202 0)
(0.996832 0.00171862 0)
(0.99673 0.00190051 0)
(0.996633 0.00205442 0)
(0.996548 0.0022428 0)
(0.996459 0.00239773 0)
(0.996372 0.00257092 0)
(0.996287 0.00270838 0)
(0.996214 0.00285156 0)
(0.99612 0.00293942 0)
(0.995938 0.00297643 0)
(0.995523 0.00285558 0)
(1.00002 -0.000434433 0)
(0.999623 0.000224047 0)
(0.999716 -0.000103638 0)
(0.999657 0.000126723 0)
(0.999675 -1.58381e-05 0)
(0.999578 2.50815e-05 0)
(0.999525 9.14098e-05 0)
(0.999428 7.42863e-05 0)
(0.999375 0.000132575 0)
(0.999268 0.000141617 0)
(0.99921 0.00019661 0)
(0.999106 0.000187618 0)
(0.999011 0.000243218 0)
(0.998903 0.000249769 0)
(0.998795 0.000312637 0)
(0.998664 0.000340275 0)
(0.998565 0.000408455 0)
(0.998429 0.000445762 0)
(0.99832 0.000519574 0)
(0.998175 0.000571121 0)
(0.998057 0.000658662 0)
(0.997911 0.000737348 0)
(0.997795 0.000852606 0)
(0.997664 0.000967161 0)
(0.997556 0.00111469 0)
(0.997432 0.00124481 0)
(0.99732 0.00139177 0)
(0.9972 0.00152281 0)
(0.997096 0.00167203 0)
(0.996993 0.00181143 0)
(0.9969 0.00195957 0)
(0.996803 0.00208721 0)
(0.996705 0.00220808 0)
(0.996598 0.00230898 0)
(0.9965 0.00241057 0)
(0.99641 0.00250467 0)
(0.996324 0.00259611 0)
(0.996209 0.00266866 0)
(0.996017 0.00272628 0)
(0.995642 0.00276812 0)
(1.00002 -0.00038966 0)
(0.999651 0.000178702 0)
(0.999718 -5.33629e-05 0)
(0.999673 8.96628e-05 0)
(0.99968 2.70669e-05 0)
(0.999597 2.42978e-05 0)
(0.999541 9.0938e-05 0)
(0.999442 9.85012e-05 0)
(0.999389 0.000145304 0)
(0.999285 0.000163881 0)
(0.999226 0.000209746 0)
(0.999125 0.000215651 0)
(0.999032 0.000266487 0)
(0.998926 0.000286404 0)
(0.998821 0.00034483 0)
(0.998693 0.000384521 0)
(0.998596 0.000447747 0)
(0.998463 0.000499505 0)
(0.99836 0.000570405 0)
(0.998221 0.000638753 0)
(0.998112 0.000729985 0)
(0.997979 0.000833623 0)
(0.997877 0.000959884 0)
(0.997758 0.00108795 0)
(0.997659 0.00122635 0)
(0.997543 0.00135813 0)
(0.997439 0.00149877 0)
(0.997331 0.00163059 0)
(0.997237 0.00175926 0)
(0.997141 0.00187305 0)
(0.997046 0.00198018 0)
(0.996944 0.00207813 0)
(0.996848 0.00217661 0)
(0.996759 0.00227806 0)
(0.996683 0.00238587 0)
(0.996607 0.00249326 0)
(0.996519 0.00259419 0)
(0.996386 0.00268159 0)
(0.99616 0.00275259 0)
(0.995742 0.00280738 0)
(1.00002 -0.000332758 0)
(0.999682 0.000122432 0)
(0.999724 9.61931e-06 0)
(0.99969 5.5369e-05 0)
(0.999688 5.05005e-05 0)
(0.999612 4.44091e-05 0)
(0.999558 8.90287e-05 0)
(0.999458 0.000110625 0)
(0.999408 0.00015691 0)
(0.999303 0.000188972 0)
(0.999243 0.000226524 0)
(0.999143 0.000244251 0)
(0.999055 0.000291899 0)
(0.998951 0.000322365 0)
(0.99885 0.000379313 0)
(0.998725 0.000427616 0)
(0.998632 0.000491517 0)
(0.998504 0.000554002 0)
(0.998406 0.000631088 0)
(0.998277 0.000715531 0)
(0.998182 0.000818593 0)
(0.998064 0.000934189 0)
(0.997973 0.00105963 0)
(0.997862 0.00118095 0)
(0.997772 0.00130371 0)
(0.997668 0.00142123 0)
(0.997572 0.00154312 0)
(0.997462 0.00166163 0)
(0.997357 0.00178117 0)
(0.997252 0.00189583 0)
(0.997159 0.00200827 0)
(0.997073 0.00211607 0)
(0.996999 0.00222148 0)
(0.996928 0.00232363 0)
(0.996863 0.002422 0)
(0.996788 0.00251459 0)
(0.996692 0.00259923 0)
(0.996546 0.00267541 0)
(0.996309 0.00274287 0)
(0.995889 0.00280447 0)
(1.00002 -0.000284855 0)
(0.999717 7.81731e-05 0)
(0.999733 4.38956e-05 0)
(0.999703 4.80106e-05 0)
(0.9997 5.59354e-05 0)
(0.999629 6.95379e-05 0)
(0.999576 0.000100297 0)
(0.999479 0.000128008 0)
(0.999431 0.000166061 0)
(0.999324 0.000208189 0)
(0.999264 0.000244696 0)
(0.999166 0.00027301 0)
(0.999081 0.000321097 0)
(0.99898 0.000359881 0)
(0.998883 0.000418201 0)
(0.998762 0.000473942 0)
(0.998673 0.000540312 0)
(0.998552 0.000614288 0)
(0.998464 0.000701116 0)
(0.998347 0.000803618 0)
(0.998263 0.000914276 0)
(0.998153 0.00103012 0)
(0.998067 0.00114444 0)
(0.997959 0.00126002 0)
(0.997871 0.00137514 0)
(0.99777 0.0014899 0)
(0.997683 0.00160219 0)
(0.997592 0.00171209 0)
(0.997514 0.00181937 0)
(0.997431 0.00192716 0)
(0.997349 0.00203288 0)
(0.997259 0.00213844 0)
(0.997176 0.00223942 0)
(0.9971 0.00233833 0)
(0.997032 0.00243073 0)
(0.996957 0.00251937 0)
(0.996863 0.00260042 0)
(0.996718 0.00267752 0)
(0.996484 0.00274767 0)
(0.996068 0.00281471 0)
(1.00002 -0.00023527 0)
(0.999751 3.58967e-05 0)
(0.999746 6.14452e-05 0)
(0.999718 6.10726e-05 0)
(0.999715 6.91957e-05 0)
(0.999647 8.92405e-05 0)
(0.999594 0.00011604 0)
(0.999498 0.000146503 0)
(0.999454 0.000178095 0)
(0.999348 0.000226317 0)
(0.999288 0.000266606 0)
(0.999192 0.000301005 0)
(0.99911 0.000353034 0)
(0.999012 0.000397124 0)
(0.99892 0.000459495 0)
(0.998804 0.000521972 0)
(0.998722 0.000595279 0)
(0.998611 0.000681658 0)
(0.998534 0.000779437 0)
(0.998428 0.000886821 0)
(0.998349 0.000995328 0)
(0.998246 0.0011072 0)
(0.998167 0.00122011 0)
(0.998071 0.00133859 0)
(0.997995 0.00145805 0)
(0.997904 0.00157654 0)
(0.99782 0.00168709 0)
(0.997722 0.00178846 0)
(0.997632 0.00187877 0)
(0.997543 0.00196304 0)
(0.997468 0.00204425 0)
(0.997399 0.00213061 0)
(0.99734 0.0022211 0)
(0.997281 0.00231541 0)
(0.997223 0.00240699 0)
(0.997152 0.00249544 0)
(0.997058 0.00257679 0)
(0.996914 0.00265317 0)
(0.996679 0.00272263 0)
(0.996263 0.0027879 0)
(1.00002 -0.000189186 0)
(0.999786 3.81637e-08 0)
(0.999765 7.41178e-05 0)
(0.999733 7.54292e-05 0)
(0.99973 7.93444e-05 0)
(0.999666 0.00010037 0)
(0.999615 0.000127304 0)
(0.99952 0.000164368 0)
(0.99948 0.00019652 0)
(0.999375 0.000248187 0)
(0.999316 0.000291485 0)
(0.999222 0.000330706 0)
(0.999144 0.000388236 0)
(0.999049 0.00043751 0)
(0.998963 0.000506134 0)
(0.998852 0.000576565 0)
(0.998779 0.000660375 0)
(0.998679 0.000757646 0)
(0.99861 0.000858822 0)
(0.99851 0.000962873 0)
(0.998439 0.00106449 0)
(0.998346 0.00117008 0)
(0.998277 0.00127374 0)
(0.998191 0.00138055 0)
(0.998117 0.00148491 0)
(0.998025 0.00159018 0)
(0.997937 0.0016937 0)
(0.997841 0.0017992 0)
(0.99776 0.001903 0)
(0.997684 0.00200444 0)
(0.997624 0.00210057 0)
(0.997568 0.00219407 0)
(0.99752 0.00228365 0)
(0.99747 0.0023714 0)
(0.997418 0.0024546 0)
(0.997349 0.00253447 0)
(0.997256 0.0026084 0)
(0.997111 0.00267813 0)
(0.996876 0.00274191 0)
(0.99646 0.00280182 0)
(1.00002 -0.000148857 0)
(0.99982 -2.60777e-05 0)
(0.999789 8.00007e-05 0)
(0.99975 8.98601e-05 0)
(0.999746 9.48612e-05 0)
(0.999686 0.00011707 0)
(0.999637 0.000144408 0)
(0.999544 0.000184613 0)
(0.999509 0.00021734 0)
(0.999404 0.000270696 0)
(0.999346 0.000317947 0)
(0.999255 0.000361357 0)
(0.999181 0.000425477 0)
(0.99909 0.000481871 0)
(0.999012 0.00055714 0)
(0.998909 0.000638043 0)
(0.998847 0.000729945 0)
(0.998755 0.000827758 0)
(0.99869 0.000925673 0)
(0.998596 0.00102728 0)
(0.998529 0.00112977 0)
(0.998441 0.00123907 0)
(0.998374 0.00134728 0)
(0.998295 0.00145457 0)
(0.998231 0.00155461 0)
(0.998158 0.0016509 0)
(0.998093 0.00174488 0)
(0.998015 0.00184013 0)
(0.99794 0.00193506 0)
(0.997862 0.00202968 0)
(0.997797 0.00212119 0)
(0.99774 0.00221019 0)
(0.997695 0.00229461 0)
(0.997649 0.00237588 0)
(0.997601 0.00245214 0)
(0.997536 0.00252494 0)
(0.997446 0.00259257 0)
(0.997303 0.0026566 0)
(0.997069 0.00271561 0)
(0.996653 0.00277117 0)
(1.00002 -0.000111257 0)
(0.999853 -4.75109e-05 0)
(0.999816 8.23238e-05 0)
(0.999768 0.000104614 0)
(0.999763 0.000111695 0)
(0.999707 0.000134038 0)
(0.99966 0.000160058 0)
(0.999568 0.000203501 0)
(0.999537 0.000237252 0)
(0.999436 0.000292583 0)
(0.999379 0.000344677 0)
(0.999292 0.00039114 0)
(0.999225 0.000463251 0)
(0.999138 0.000530476 0)
(0.999069 0.000616995 0)
(0.998974 0.000705531 0)
(0.998917 0.000797605 0)
(0.998831 0.000889652 0)
(0.998773 0.000984173 0)
(0.998689 0.00108234 0)
(0.998635 0.00118169 0)
(0.998562 0.00128557 0)
(0.998505 0.00139069 0)
(0.998427 0.00149677 0)
(0.998357 0.0016007 0)
(0.998274 0.00170105 0)
(0.998201 0.00179569 0)
(0.998126 0.00188398 0)
(0.998064 0.00196721 0)
(0.998006 0.00204977 0)
(0.99796 0.00213176 0)
(0.997916 0.00221412 0)
(0.997879 0.00229375 0)
(0.997838 0.00237107 0)
(0.997793 0.00244341 0)
(0.99773 0.00251222 0)
(0.997642 0.00257565 0)
(0.997499 0.00263563 0)
(0.997267 0.00269067 0)
(0.996851 0.00274264 0)
(1.00002 -8.0669e-05 0)
(0.999884 -4.95527e-05 0)
(0.99985 7.42271e-05 0)
(0.999788 0.000112895 0)
(0.999779 0.000129092 0)
(0.999727 0.000152782 0)
(0.999685 0.000179529 0)
(0.999594 0.00022339 0)
(0.999569 0.000257902 0)
(0.999471 0.000316043 0)
(0.999415 0.000376636 0)
(0.999333 0.00043236 0)
(0.999274 0.000512829 0)
(0.999195 0.000587451 0)
(0.999134 0.000675951 0)
(0.999043 0.000763731 0)
(0.99899 0.000852729 0)
(0.998911 0.000943661 0)
(0.998858 0.00103775 0)
(0.998781 0.00113509 0)
(0.99873 0.00123202 0)
(0.998662 0.00132965 0)
(0.998612 0.00142794 0)
(0.998549 0.00152769 0)
(0.998498 0.00162936 0)
(0.998434 0.00173042 0)
(0.998371 0.00182801 0)
(0.998298 0.00192035 0)
(0.998233 0.00200679 0)
(0.998173 0.00208915 0)
(0.998129 0.00216759 0)
(0.998091 0.0022442 0)
(0.998061 0.00231743 0)
(0.998025 0.00238841 0)
(0.997983 0.00245485 0)
(0.997923 0.00251814 0)
(0.997836 0.00257641 0)
(0.997694 0.00263153 0)
(0.997462 0.00268199 0)
(0.997048 0.00272964 0)
(1.00002 -5.76071e-05 0)
(0.999909 -3.21279e-05 0)
(0.999879 5.60894e-05 0)
(0.99981 0.000113707 0)
(0.999796 0.000146422 0)
(0.999746 0.00017454 0)
(0.999706 0.000202287 0)
(0.999618 0.000249499 0)
(0.999598 0.000284999 0)
(0.999507 0.000345933 0)
(0.999455 0.000413126 0)
(0.99938 0.000476459 0)
(0.999328 0.000559965 0)
(0.999251 0.000636338 0)
(0.999196 0.00072144 0)
(0.99911 0.000808032 0)
(0.999063 0.00089883 0)
(0.998992 0.000991825 0)
(0.998948 0.00108855 0)
(0.998881 0.00118696 0)
(0.998839 0.00128682 0)
(0.998784 0.00138569 0)
(0.998744 0.00148519 0)
(0.998688 0.00158242 0)
(0.998637 0.00167714 0)
(0.998568 0.00176696 0)
(0.998503 0.00185148 0)
(0.998432 0.00193192 0)
(0.998377 0.00200938 0)
(0.998327 0.00208599 0)
(0.998294 0.0021601 0)
(0.998264 0.00223303 0)
(0.99824 0.00230191 0)
(0.998208 0.00236853 0)
(0.99817 0.00243012 0)
(0.998111 0.00248898 0)
(0.998025 0.00254272 0)
(0.997884 0.00259384 0)
(0.997653 0.00264027 0)
(0.997239 0.00268442 0)
(1.00002 -3.7397e-05 0)
(0.999926 -1.93951e-05 0)
(0.999906 4.9679e-05 0)
(0.999835 0.000113023 0)
(0.999812 0.000160467 0)
(0.999763 0.000196296 0)
(0.999727 0.000228039 0)
(0.999641 0.00028011 0)
(0.999628 0.000319576 0)
(0.999543 0.000381656 0)
(0.999495 0.000449808 0)
(0.999425 0.000513563 0)
(0.99938 0.000594926 0)
(0.999308 0.000675574 0)
(0.99926 0.000762764 0)
(0.999183 0.0008529 0)
(0.999142 0.000946994 0)
(0.99908 0.00104134 0)
(0.999043 0.00113992 0)
(0.998984 0.00123717 0)
(0.998945 0.00133616 0)
(0.998895 0.00143051 0)
(0.998858 0.00152406 0)
(0.998809 0.00161238 0)
(0.998766 0.00169741 0)
(0.998709 0.0017775 0)
(0.998652 0.00185492 0)
(0.998587 0.0019313 0)
(0.998537 0.00200663 0)
(0.998492 0.00208197 0)
(0.998465 0.00215447 0)
(0.99844 0.00222528 0)
(0.99842 0.00229122 0)
(0.998391 0.00235445 0)
(0.998355 0.00241224 0)
(0.998297 0.0024673 0)
(0.998212 0.00251724 0)
(0.998072 0.0025648 0)
(0.997842 0.00260781 0)
(0.997427 0.00264883 0)
(1.00002 -2.20962e-05 0)
(0.999939 -4.91531e-06 0)
(0.999928 5.69055e-05 0)
(0.999859 0.000108339 0)
(0.999832 0.000167017 0)
(0.999782 0.000214831 0)
(0.999748 0.00025435 0)
(0.999664 0.000311117 0)
(0.999655 0.00035436 0)
(0.999578 0.000415498 0)
(0.999536 0.000484648 0)
(0.99947 0.000550916 0)
(0.999435 0.000633486 0)
(0.999369 0.000717472 0)
(0.999328 0.000808377 0)
(0.999258 0.000898348 0)
(0.999224 0.000994848 0)
(0.999171 0.00108717 0)
(0.99914 0.00118597 0)
(0.99909 0.00128007 0)
(0.999059 0.0013779 0)
(0.999016 0.00146966 0)
(0.998984 0.00156077 0)
(0.998937 0.00164491 0)
(0.998891 0.00172392 0)
(0.99883 0.00179593 0)
(0.998777 0.00186414 0)
(0.998725 0.00193302 0)
(0.99869 0.00200255 0)
(0.998659 0.00207408 0)
(0.99864 0.00214298 0)
(0.99862 0.00221053 0)
(0.998603 0.00227254 0)
(0.998574 0.00233195 0)
(0.998539 0.0023855 0)
(0.998481 0.00243667 0)
(0.998397 0.00248256 0)
(0.998257 0.00252656 0)
(0.998027 0.00256597 0)
(0.997613 0.00260384 0)
(1.00002 -9.72008e-06 0)
(0.99995 8.94396e-06 0)
(0.999946 6.53044e-05 0)
(0.99988 0.000109736 0)
(0.999852 0.00017163 0)
(0.999801 0.000229429 0)
(0.99977 0.000278341 0)
(0.999688 0.000340933 0)
(0.999684 0.000388206 0)
(0.999613 0.000451938 0)
(0.999577 0.000520632 0)
(0.999517 0.000591103 0)
(0.999492 0.000671406 0)
(0.999433 0.000757198 0)
(0.999398 0.000849528 0)
(0.999337 0.000938858 0)
(0.999308 0.00103611 0)
(0.999264 0.00112698 0)
(0.99924 0.00122488 0)
(0.999199 0.00131581 0)
(0.999171 0.00140953 0)
(0.999132 0.00149475 0)
(0.999101 0.00157773 0)
(0.999055 0.00165288 0)
(0.999011 0.0017244 0)
(0.998955 0.00179301 0)
(0.998912 0.00186107 0)
(0.998871 0.00193027 0)
(0.998847 0.00199854 0)
(0.998826 0.00206696 0)
(0.998814 0.00213151 0)
(0.998797 0.00219421 0)
(0.998782 0.00225133 0)
(0.998754 0.002306 0)
(0.998719 0.00235506 0)
(0.99866 0.00240202 0)
(0.998576 0.002444 0)
(0.998436 0.00248436 0)
(0.998207 0.00252041 0)
(0.997792 0.00255515 0)
(1.00002 -8.60153e-07 0)
(0.999957 2.48543e-05 0)
(0.99996 7.41317e-05 0)
(0.999898 0.000117252 0)
(0.999873 0.000177112 0)
(0.999824 0.000238514 0)
(0.999793 0.000297726 0)
(0.999713 0.000368875 0)
(0.999712 0.000422663 0)
(0.999648 0.000490184 0)
(0.999618 0.000560174 0)
(0.999563 0.000632768 0)
(0.999549 0.000711645 0)
(0.999498 0.000794036 0)
(0.999472 0.000887268 0)
(0.999418 0.000974546 0)
(0.999396 0.00107161 0)
(0.999359 0.00116001 0)
(0.999342 0.00125593 0)
(0.999306 0.00134319 0)
(0.999282 0.0014323 0)
(0.999245 0.00151164 0)
(0.999215 0.00158783 0)
(0.999169 0.00165651 0)
(0.999129 0.00172316 0)
(0.999083 0.00178912 0)
(0.999051 0.00185539 0)
(0.999022 0.00192277 0)
(0.999007 0.00198797 0)
(0.998992 0.00205239 0)
(0.998985 0.00211197 0)
(0.99897 0.00216957 0)
(0.998955 0.00222149 0)
(0.998928 0.00227143 0)
(0.998893 0.00231599 0)
(0.998834 0.002359 0)
(0.998751 0.00239725 0)
(0.998611 0.00243432 0)
(0.998382 0.00246718 0)
(0.997967 0.00249909 0)
(1.00002 6.37368e-06 0)
(0.999963 3.81074e-05 0)
(0.999971 8.642e-05 0)
(0.999913 0.000128607 0)
(0.99989 0.000188326 0)
(0.999845 0.000246762 0)
(0.999821 0.000308771 0)
(0.999742 0.000386896 0)
(0.999743 0.000447118 0)
(0.999684 0.0005232 0)
(0.99966 0.000598188 0)
(0.99961 0.00067666 0)
(0.999603 0.000754417 0)
(0.999563 0.000832509 0)
(0.999545 0.000922267 0)
(0.9995 0.00100713 0)
(0.999485 0.0011011 0)
(0.999456 0.00118643 0)
(0.999445 0.00127901 0)
(0.999414 0.00136257 0)
(0.999391 0.00144711 0)
(0.999353 0.00152061 0)
(0.999322 0.00159111 0)
(0.99928 0.00165556 0)
(0.999248 0.00172033 0)
(0.999213 0.00178466 0)
(0.999192 0.001849 0)
(0.999172 0.00191286 0)
(0.999165 0.00197382 0)
(0.999154 0.00203306 0)
(0.999149 0.00208757 0)
(0.999135 0.00213999 0)
(0.999121 0.00218729 0)
(0.999094 0.00223278 0)
(0.999059 0.00227345 0)
(0.999001 0.00231274 0)
(0.998918 0.00234769 0)
(0.998778 0.00238159 0)
(0.99855 0.00241163 0)
(0.998135 0.00244083 0)
(1.00002 1.22427e-05 0)
(0.999967 4.93575e-05 0)
(0.999979 9.96626e-05 0)
(0.999926 0.000142011 0)
(0.999906 0.000204558 0)
(0.999865 0.00026245 0)
(0.999847 0.000324295 0)
(0.999773 0.000405571 0)
(0.999777 0.000469109 0)
(0.999727 0.000548398 0)
(0.999709 0.000627971 0)
(0.999661 0.000708375 0)
(0.999658 0.000788581 0)
(0.999626 0.000863567 0)
(0.999618 0.000950246 0)
(0.999582 0.00103066 0)
(0.999574 0.00112002 0)
(0.999553 0.00119827 0)
(0.999548 0.0012838 0)
(0.999521 0.00135993 0)
(0.999498 0.00143928 0)
(0.99946 0.00150904 0)
(0.99943 0.00157832 0)
(0.999395 0.00164207 0)
(0.999372 0.00170613 0)
(0.999346 0.00176828 0)
(0.999334 0.0018292 0)
(0.999321 0.00188832 0)
(0.999318 0.00194393 0)
(0.999311 0.0019976 0)
(0.999308 0.00204673 0)
(0.999295 0.00209422 0)
(0.999282 0.00213697 0)
(0.999255 0.00217841 0)
(0.999221 0.00221529 0)
(0.999163 0.00225115 0)
(0.99908 0.00228282 0)
(0.998941 0.00231374 0)
(0.998713 0.00234089 0)
(0.998298 0.00236747 0)
(1.00002 1.68867e-05 0)
(0.999971 5.98899e-05 0)
(0.999987 0.000113249 0)
(0.999938 0.000158115 0)
(0.999922 0.000222053 0)
(0.999884 0.00028308 0)
(0.999875 0.00034538 0)
(0.999804 0.000429111 0)
(0.999812 0.000492298 0)
(0.999769 0.000570407 0)
(0.999757 0.000647573 0)
(0.999714 0.00072812 0)
(0.999715 0.000809201 0)
(0.99969 0.000885933 0)
(0.99969 0.000971129 0)
(0.999661 0.00105032 0)
(0.999658 0.00113829 0)
(0.999642 0.0012135 0)
(0.999642 0.00129529 0)
(0.999622 0.00136669 0)
(0.999605 0.0014429 0)
(0.999571 0.00150987 0)
(0.999546 0.00157763 0)
(0.999515 0.0016391 0)
(0.999498 0.0017008 0)
(0.999478 0.0017596 0)
(0.999471 0.00181696 0)
(0.999462 0.00187189 0)
(0.999463 0.00192321 0)
(0.999457 0.00197236 0)
(0.999457 0.00201717 0)
(0.999446 0.0020605 0)
(0.999434 0.00209946 0)
(0.999408 0.00213743 0)
(0.999374 0.00217116 0)
(0.999317 0.00220414 0)
(0.999234 0.00223315 0)
(0.999095 0.0022616 0)
(0.998866 0.00228641 0)
(0.998451 0.00231081 0)
(1.00002 2.0712e-05 0)
(0.999974 6.7928e-05 0)
(0.999992 0.000125611 0)
(0.999949 0.000173046 0)
(0.999939 0.000238729 0)
(0.999903 0.00030248 0)
(0.999902 0.000363514 0)
(0.999836 0.00044713 0)
(0.999844 0.000513367 0)
(0.99981 0.000587859 0)
(0.999806 0.000664924 0)
(0.999768 0.000743347 0)
(0.999775 0.000822745 0)
(0.999757 0.000895448 0)
(0.999766 0.000976051 0)
(0.999747 0.00104713 0)
(0.99975 0.00112926 0)
(0.999739 0.00119701 0)
(0.999743 0.00127256 0)
(0.999728 0.00133632 0)
(0.999714 0.00140623 0)
(0.999681 0.00146698 0)
(0.999658 0.00152959 0)
(0.999633 0.00158647 0)
(0.999623 0.00164391 0)
(0.99961 0.00169893 0)
(0.999609 0.00175245 0)
(0.999603 0.00180394 0)
(0.999606 0.00185144 0)
(0.999602 0.00189703 0)
(0.999603 0.00193787 0)
(0.999593 0.00197763 0)
(0.999583 0.00201287 0)
(0.999558 0.00204769 0)
(0.999526 0.00207827 0)
(0.999469 0.00210867 0)
(0.999386 0.0021351 0)
(0.999247 0.00216148 0)
(0.999018 0.00218425 0)
(0.998603 0.00220704 0)
(1.00002 2.4501e-05 0)
(0.999977 7.62489e-05 0)
(0.999998 0.000137642 0)
(0.99996 0.000188679 0)
(0.999956 0.000253376 0)
(0.99992 0.000319659 0)
(0.999929 0.000379661 0)
(0.99987 0.000462706 0)
(0.999878 0.000531813 0)
(0.999852 0.000606546 0)
(0.999854 0.000682925 0)
(0.99982 0.000763119 0)
(0.99983 0.000843381 0)
(0.999817 0.000917241 0)
(0.999829 0.000999537 0)
(0.999817 0.00107071 0)
(0.999823 0.00115322 0)
(0.999816 0.00122068 0)
(0.999825 0.00129436 0)
(0.999816 0.00135415 0)
(0.999809 0.00141812 0)
(0.999783 0.00147398 0)
(0.999766 0.00153259 0)
(0.999746 0.00158683 0)
(0.999744 0.00164091 0)
(0.999737 0.00169256 0)
(0.999742 0.00174172 0)
(0.999739 0.00178926 0)
(0.999743 0.00183252 0)
(0.999739 0.0018745 0)
(0.999741 0.0019115 0)
(0.999731 0.00194779 0)
(0.999722 0.00197929 0)
(0.999698 0.00201056 0)
(0.999667 0.00203739 0)
(0.999611 0.00206421 0)
(0.99953 0.00208697 0)
(0.999392 0.00210982 0)
(0.999164 0.00212905 0)
(0.99875 0.00214845 0)
(1.00002 2.48238e-05 0)
(0.99998 8.33337e-05 0)
(1 0.000148572 0)
(0.999968 0.000206057 0)
(0.999971 0.000267977 0)
(0.999938 0.000336877 0)
(0.999953 0.000394768 0)
(0.999904 0.000472736 0)
(0.999913 0.00054241 0)
(0.999894 0.000613015 0)
(0.999906 0.000683458 0)
(0.999881 0.000756227 0)
(0.999897 0.000829198 0)
(0.999893 0.00089127 0)
(0.999915 0.000961575 0)
(0.999912 0.00101801 0)
(0.999925 0.00108537 0)
(0.99992 0.00113904 0)
(0.999927 0.00120082 0)
(0.999914 0.00125321 0)
(0.999908 0.001313 0)
(0.999885 0.00137023 0)
(0.999876 0.00143205 0)
(0.999862 0.00149103 0)
(0.999865 0.00154641 0)
(0.999862 0.00159696 0)
(0.99987 0.00164147 0)
(0.999869 0.00168404 0)
(0.999875 0.00172195 0)
(0.999871 0.00176038 0)
(0.999873 0.00179488 0)
(0.999862 0.00183065 0)
(0.999852 0.0018626 0)
(0.999826 0.00189574 0)
(0.999793 0.00192503 0)
(0.999735 0.00195515 0)
(0.999651 0.00198142 0)