/*--------------------------------*- C++ -*----------------------------------*\
| =========                 |                                                 |
| \\      /  F ield         | OpenFOAM: The Open Source CFD Toolbox           |
|  \\    /   O peration     | Version:  2312                                  |
|   \\  /    A nd           | Website:  www.openfoam.com                      |
|    \\/     M anipulation  |                                                 |
\*---------------------------------------------------------------------------*/
FoamFile
{
    version     2.0;
    format      ascii;
    arch        "LSB;label=32;scalar=64";
    class       volScalarField;
    location    "0.95";
    object      p;
}
// * * * * * * * * * * * * * * * * * * * * * * * * * * * * * * * * * * * * * //

dimensions      [0 2 -2 0 0 0 0];

internalField   nonuniform List<scalar> 
5600
(
2.03012e-09
0.000472551
0.000304477
0.000442488
0.000369889
0.000530036
0.000508682
0.000652815
0.000673389
0.000808121
0.000867332
0.00099723
0.00108226
0.00121123
0.00131979
0.00145391
0.00158055
0.00171979
0.00186185
0.0020155
0.00217578
0.00234682
0.00252527
0.00271629
0.00291307
0.00312166
0.00333501
0.00356016
0.00379203
0.0040389
0.00429747
0.00457494
0.00486594
0.00516772
0.00546825
0.00575822
0.00604479
0.00632599
0.00653856
0.00650771
2.60416e-06
0.000469579
0.000306451
0.000439654
0.000372374
0.000526413
0.000511259
0.00064862
0.000676068
0.000803445
0.000869508
0.000992235
0.00108305
0.0012062
0.00131895
0.00144856
0.00157706
0.00171418
0.00185702
0.0020111
0.0021705
0.00234044
0.00251676
0.00270431
0.00289947
0.0031049
0.0033176
0.00354013
0.00377094
0.00401137
0.00425777
0.00450486
0.00474568
0.00498104
0.00521328
0.00543299
0.00561344
0.00571137
0.00565534
0.00532152
4.95758e-06
0.000467903
0.000307493
0.000438454
0.000373362
0.000524734
0.000512039
0.000646774
0.000676587
0.000801515
0.000869694
0.000990371
0.00108259
0.00120453
0.00131748
0.00144659
0.00157478
0.0017117
0.00185389
0.0020069
0.00216575
0.00233504
0.00250979
0.00269613
0.00288941
0.00309314
0.00330281
0.00352086
0.00374383
0.00397324
0.00420486
0.0044332
0.00465316
0.00486831
0.00507869
0.00527264
0.00542263
0.0054918
0.00541859
0.00509589
8.91358e-06
0.000463712
0.000309983
0.000434644
0.000376363
0.00051986
0.000515232
0.00064139
0.000679835
0.000795607
0.000872174
0.000984089
0.00108322
0.00119818
0.00131607
0.00144124
0.00157027
0.0017064
0.00184778
0.00199954
0.00215781
0.00232435
0.00249782
0.0026804
0.00287118
0.0030708
0.00327763
0.00349034
0.00370417
0.00391311
0.00411517
0.00431408
0.0045117
0.00470386
0.00487911
0.00501998
0.00510177
0.00509069
0.00493429
0.00453909
1.24941e-05
0.000459902
0.000312023
0.000432024
0.000378414
0.000516282
0.000516755
0.000637585
0.000680733
0.000792039
0.000872316
0.000980921
0.00108212
0.00119478
0.00131273
0.00143754
0.00156533
0.00170036
0.00184094
0.00199133
0.00214799
0.00231238
0.00248341
0.00266288
0.00284968
0.00304323
0.00324117
0.0034419
0.00364254
0.00383906
0.00402559
0.00420323
0.00437671
0.00454312
0.00468994
0.00479957
0.00485023
0.00481369
0.00464398
0.00425376
1.74274e-05
0.000453802
0.000315611
0.000426945
0.000382426
0.000509772
0.000520862
0.000630858
0.000684144
0.000784941
0.000873699
0.000974689
0.00107974
0.00119155
0.001308
0.00143126
0.00155829
0.00169204
0.00183181
0.00198012
0.00213488
0.00229618
0.00246383
0.00263876
0.00282078
0.00300899
0.00319897
0.00338424
0.0035609
0.00373212
0.00390079
0.00406706
0.0042275
0.00437547
0.00449979
0.00458534
0.00461195
0.00455141
0.00435811
0.00394552
2.23083e-05
0.000447424
0.000318902
0.000422738
0.000385596
0.000504028
0.000522803
0.000625285
0.000684971
0.000780691
0.000872796
0.00097157
0.00107603
0.00118684
0.00130205
0.00142423
0.00155012
0.00168249
0.00182057
0.00196668
0.00211863
0.00227645
0.00243955
0.00260833
0.0027814
0.00295698
0.00313262
0.00330618
0.00347399
0.00363142
0.00378052
0.00392735
0.00407061
0.00420171
0.00430915
0.00437936
0.00439431
0.00432727
0.00413219
0.0037188
2.85703e-05
0.00043859
0.000323838
0.000416142
0.000390819
0.000495777
0.0005275
0.000617414
0.00068639
0.000774533
0.00086994
0.000968912
0.00107083
0.00118038
0.00129462
0.00141583
0.00154
0.00167065
0.00180634
0.00194996
0.00209833
0.00225197
0.00240912
0.00257036
0.0027338
0.00289826
0.00305918
0.00321137
0.00335601
0.00349815
0.00363938
0.00377801
0.00390902
0.00402619
0.00412044
0.004181
0.00419191
0.00412873
0.00394721
0.00355929
3.50923e-05
0.000428827
0.00032862
0.0004102
0.00039479
0.000487832
0.000528918
0.000611338
0.000686044
0.00077164
0.000866226
0.000963933
0.00106482
0.00117292
0.00128607
0.00140556
0.00152799
0.00165614
0.00178929
0.00192941
0.00207366
0.00222197
0.00237301
0.00252571
0.00267612
0.00281976
0.00295659
0.00309074
0.00322453
0.00335805
0.00349004
0.00361933
0.00374373
0.00386033
0.00396322
0.00404245
0.00408022
0.00404497
0.0038751
0.00344687
4.30512e-05
0.000416436
0.000334777
0.000402313
0.000400966
0.000478292
0.000532484
0.0006036
0.000682017
0.000768383
0.000862162
0.000957327
0.00105803
0.00116373
0.00127604
0.00139279
0.00151372
0.00163839
0.00176888
0.00190438
0.00204379
0.00218435
0.00232573
0.00246523
0.0025996
0.00272677
0.00285041
0.0029737
0.00309541
0.00321069
0.00331556
0.00340869
0.00349375
0.00357821
0.00366546
0.00374644
0.00381966
0.00391163
0.00409372
0.00450532
5.15691e-05
0.000402428
0.000341048
0.000394815
0.000404592
0.000469281
0.000531631
0.000601357
0.00067808
0.000763259
0.000856319
0.000949902
0.00104944
0.00115321
0.00126378
0.00137805
0.00149641
0.00161747
0.00174393
0.00187437
0.00200772
0.0021395
0.00226724
0.00238871
0.0025061
0.00262261
0.00273871
0.00285154
0.00295902
0.00305958
0.00315475
0.00324897
0.00334802
0.00345103
0.00354857
0.00363604
0.00372259
0.00383537
0.00402752
0.0043997
6.15756e-05
0.000385679
0.000347544
0.000387162
0.000410059
0.000462037
0.000525484
0.000597493
0.000674332
0.00075743
0.000848865
0.000941202
0.00103873
0.00114093
0.00124892
0.00136082
0.00147567
0.00159283
0.00171356
0.00183691
0.00196047
0.00208027
0.00219379
0.0023024
0.0024107
0.00251996
0.00262781
0.00273071
0.00282755
0.00292185
0.00301924
0.00311962
0.00321529
0.00330029
0.00337524
0.00344851
0.00353692
0.00366913
0.00389494
0.00430999
7.22542e-05
0.000367286
0.000354037
0.000379198
0.000410017
0.000458585
0.000519573
0.00059203
0.000669012
0.000751017
0.000840713
0.000930996
0.00102615
0.00112629
0.0012315
0.00134031
0.00145114
0.00156373
0.00167846
0.00179294
0.00190215
0.00200508
0.00210554
0.00220561
0.002305
0.00240394
0.00250545
0.00261236
0.00272054
0.00282345
0.00291682
0.00299948
0.00307276
0.00313965
0.00320508
0.00327843
0.00337522
0.00352011
0.00375696
0.00417373
8.44337e-05
0.000345542
0.000359101
0.000376198
0.000407604
0.000454942
0.000513851
0.000584381
0.000660662
0.00074285
0.00083101
0.000919039
0.00101137
0.001109
0.00121103
0.00131603
0.00142161
0.00152694
0.00163208
0.00173532
0.00183348
0.00192844
0.00202401
0.00212138
0.00221941
0.00231546
0.00240716
0.00249297
0.00257336
0.00265277
0.00273693
0.00282447
0.00290709
0.00298023
0.00304803
0.0031213
0.00321683
0.00336006
0.0035947
0.00400756
9.71149e-05
0.000324844
0.000360587
0.000372226
0.000402212
0.000449887
0.00050862
0.000578278
0.000652817
0.000732599
0.000818699
0.000904619
0.000993999
0.00108862
0.00118693
0.00128728
0.00138623
0.00148238
0.00157527
0.00166698
0.00175816
0.00184801
0.00193649
0.0020233
0.00210849
0.00219379
0.00228258
0.00237573
0.00246763
0.00255261
0.00262811
0.00269463
0.00275436
0.0028109
0.00286967
0.00293944
0.00303428
0.00317757
0.00341214
0.00382541
0.000110772
0.000303652
0.000356822
0.000369823
0.00039844
0.000445088
0.000502211
0.000570048
0.000642504
0.000720047
0.000804139
0.000887604
0.000973644
0.00106457
0.00115828
0.00125232
0.0013422
0.00142721
0.00151122
0.0015963
0.00168031
0.00176068
0.00183853
0.00191722
0.0020006
0.00209033
0.00218241
0.00227114
0.00235209
0.00242327
0.00248492
0.00253868
0.0025876
0.00263586
0.00268943
0.00275679
0.00285113
0.00299486
0.00323002
0.00364354
0.000124666
0.000284181
0.000348513
0.000366346
0.000393804
0.000438941
0.000494285
0.000560333
0.000630848
0.000705773
0.000787205
0.000867677
0.000949795
0.00103609
0.00112353
0.0012087
0.00128806
0.00136529
0.00144436
0.00152564
0.00160661
0.00168459
0.00175938
0.00183151
0.00190087
0.00196727
0.00203261
0.00210092
0.00217485
0.00225049
0.00232022
0.00237921
0.0024284
0.00247345
0.00252234
0.00258519
0.00267602
0.00281743
0.00305123
0.00346419
0.000138532
0.00026525
0.000335666
0.000361803
0.000389349
0.000432676
0.000485778
0.00054939
0.000617525
0.00068922
0.000767156
0.000843535
0.000920589
0.00100134
0.00108094
0.00115723
0.00123058
0.00130251
0.00137366
0.00144272
0.00150888
0.00157361
0.00164144
0.00171524
0.00179202
0.00186782
0.00194005
0.00200744
0.00206929
0.00212509
0.00217471
0.00221872
0.00225898
0.00229904
0.00234502
0.00240589
0.00249521
0.00263542
0.00286835
0.00328074
0.000152344
0.000248808
0.000317244
0.000354897
0.000384324
0.000425739
0.000475999
0.000536412
0.000601492
0.000669841
0.000744479
0.000816058
0.000884653
0.00095637
0.00102946
0.0011019
0.00117139
0.0012381
0.00130373
0.00136888
0.00143228
0.00149226
0.00154888
0.0016037
0.00165836
0.00171459
0.00177514
0.00184116
0.00190775
0.00196795
0.00201779
0.00205778
0.00209201
0.00212654
0.00216851
0.00222688
0.00231468
0.0024539
0.00268609
0.00309798
0.00016288
0.000235031
0.00029937
0.000343472
0.000376607
0.000417765
0.000465944
0.000523043
0.000583547
0.000645263
0.000712989
0.000778871
0.000842928
0.000910665
0.000979324
0.00104574
0.00110801
0.00116683
0.00122348
0.00127774
0.00132843
0.00137538
0.00142106
0.00146995
0.00152623
0.00159095
0.00165978
0.00172604
0.00178422
0.0018317
0.00186904
0.00189912
0.00192633
0.00195597
0.00199459
0.00205072
0.00213709
0.0022754
0.00250705
0.0029188
0.000170287
0.00022563
0.00028089
0.000326184
0.000365189
0.000407788
0.000453388
0.000506116
0.000562178
0.000618131
0.00067998
0.000740841
0.000798936
0.000860241
0.000922428
0.000981478
0.00103565
0.00108651
0.00113619
0.0011851
0.00123228
0.00127663
0.00131873
0.00136046
0.0014042
0.00145199
0.00150566
0.00156418
0.00162061
0.00166799
0.00170392
0.00173086
0.00175432
0.00178078
0.00181719
0.00187196
0.00195748
0.00209524
0.00232648
0.00273796
0.000174742
0.000216365
0.000263534
0.000307011
0.000349113
0.000393842
0.000437799
0.000486629
0.000538644
0.000589085
0.00064397
0.000698255
0.000749072
0.000802914
0.000858324
0.000910652
0.000957536
0.00100053
0.00104188
0.00108141
0.00111841
0.00115335
0.00118948
0.00123133
0.00128192
0.00133859
0.00139464
0.00144379
0.00148298
0.00151261
0.00153538
0.00155495
0.00157528
0.00160087
0.00163723
0.00169203
0.00177746
0.001915
0.00214604
0.00255755
0.000175899
0.000207214
0.000247378
0.000287381
0.000328161
0.000374559
0.00041817
0.000463388
0.000511291
0.000556945
0.000604561
0.000651391
0.000694301
0.000740058
0.000788293
0.000833721
0.000873307
0.00090846
0.000942397
0.000976185
0.00100939
0.00104183
0.00107559
0.00111406
0.00115982
0.00121088
0.00125975
0.00129955
0.00132819
0.00134795
0.00136308
0.00137784
0.00139593
0.00142097
0.00145756
0.00151269
0.00159827
0.00173574
0.00196664
0.00237818
0.00017374
0.000197406
0.000231155
0.000266983
0.00030451
0.00034965
0.000393134
0.000435821
0.000479883
0.00052093
0.000561986
0.000601106
0.000635508
0.000672107
0.000712178
0.000750338
0.000782874
0.000810721
0.000837459
0.000864866
0.000893252
0.000923141
0.000956773
0.000996409
0.00104047
0.0010837
0.0011205
0.00114793
0.00116648
0.0011792
0.00118998
0.00120238
0.00121949
0.00124439
0.00128118
0.00133654
0.00142217
0.00155952
0.00179027
0.0022018
0.000167768
0.000186308
0.000214705
0.000246437
0.000279871
0.000320389
0.000360699
0.000400757
0.000442012
0.000479295
0.000514455
0.00054707
0.000574208
0.000601673
0.000632406
0.000662143
0.000687072
0.000707694
0.00072798
0.000751058
0.000778135
0.000809454
0.000844933
0.000882428
0.000918594
0.000950081
0.000974545
0.00099149
0.0010025
0.00101049
0.00101866
0.00102986
0.00104651
0.00107124
0.00110791
0.00116307
0.00124841
0.00138549
0.0016161
0.00202773
0.000158407
0.000172826
0.000196531
0.000224087
0.000253618
0.000290677
0.00032717
0.000361235
0.00039589
0.000427414
0.000456959
0.000485462
0.000508764
0.00052919
0.000550504
0.000570831
0.000587157
0.000600043
0.00061404
0.000633638
0.000660768
0.000693731
0.000727901
0.000759384
0.000786206
0.000807493
0.000822943
0.000833071
0.000839436
0.000844401
0.000850596
0.000860459
0.000876225
0.000900384
0.000936656
0.000991511
0.00107657
0.00121332
0.0014436
0.00185512
0.00014548
0.00015661
0.000176095
0.000199368
0.000224064
0.000256148
0.000288169
0.000317104
0.000346414
0.000373284
0.000397374
0.000419978
0.000438076
0.000452356
0.00046647
0.000480306
0.000491606
0.000500101
0.000508947
0.00052181
0.00054074
0.000565646
0.000594491
0.000622705
0.000646333
0.000663549
0.000674492
0.000680396
0.000683218
0.000685345
0.000689271
0.000697311
0.000711648
0.000734772
0.000770392
0.0008249
0.000909845
0.00104669
0.00127726
0.00168927
0.000128575
0.000136952
0.000152639
0.000171795
0.000191507
0.0002185
0.000246159
0.000270135
0.000293791
0.000315309
0.00033321
0.000348484
0.000359502
0.000366389
0.000372002
0.000377047
0.000380588
0.000382824
0.000386918
0.000396802
0.000414769
0.000439666
0.000466321
0.000489318
0.000505944
0.000516166
0.000521285
0.000522989
0.000523064
0.000523393
0.000525956
0.000532755
0.000545881
0.000567879
0.000602564
0.000656422
0.00074101
0.000877751
0.00110843
0.00152079
0.000108576
0.00011388
0.000125548
0.000140691
0.000155578
0.000177134
0.000200121
0.000218911
0.000236711
0.000253068
0.000266202
0.000276581
0.000283512
0.000286873
0.000288666
0.00028952
0.00028882
0.000286678
0.000285825
0.000290012
0.000301739
0.000320039
0.000339484
0.000354744
0.000363709
0.000367233
0.000367366
0.000366049
0.000364726
0.000364632
0.000367053
0.000373542
0.000386028
0.000407101
0.000440688
0.000493342
0.000576704
0.000712273
0.00094188
0.00135327
8.31631e-05
8.68473e-05
9.52096e-05
0.000106903
0.000117001
0.000132445
0.000150035
0.000163116
0.000174105
0.00018364
0.000189556
0.000191327
0.000188834
0.000182384
0.000174359
0.000166582
0.000160048
0.000156194
0.000157862
0.00016695
0.000181315
0.00019632
0.000207837
0.000214157
0.000215909
0.000214803
0.000212412
0.000209777
0.00020768
0.000207147
0.000209602
0.000216703
0.000230399
0.000253246
0.000289101
0.000344429
0.00043073
0.000569345
0.000801998
0.00121645
5.59295e-05
5.41924e-05
5.85252e-05
6.76821e-05
7.55753e-05
8.58505e-05
9.89487e-05
0.000107486
0.000113761
0.000119591
0.000124223
0.000126068
0.000125301
0.000121605
0.000116431
0.00010997
0.000101624
9.02832e-05
7.66532e-05
6.24541e-05
4.9733e-05
4.0139e-05
3.56532e-05
3.82087e-05
4.73089e-05
5.83454e-05
6.60553e-05
6.73746e-05
6.22888e-05
5.29223e-05
4.25249e-05
3.46617e-05
3.29177e-05
4.09818e-05
6.34296e-05
0.000107079
0.000183609
0.000314469
0.00054162
0.000953314
2.05972e-05
2.09244e-05
2.20183e-05
2.61122e-05
2.73435e-05
2.99235e-05
3.60102e-05
3.88398e-05
3.77447e-05
3.50097e-05
3.0118e-05
2.13699e-05
8.72436e-06
-7.16795e-06
-2.4364e-05
-4.10409e-05
-5.60558e-05
-6.84712e-05
-7.63886e-05
-7.72979e-05
-7.06792e-05
-6.02599e-05
-5.15037e-05
-4.8117e-05
-5.05717e-05
-5.69803e-05
-6.4703e-05
-7.15127e-05
-7.5935e-05
-7.70242e-05
-7.39587e-05
-6.56878e-05
-5.06337e-05
-2.63397e-05
1.11631e-05
6.85508e-05
0.000157557
0.000299743
0.00053706
0.000957539
-2.55145e-05
-2.01118e-05
-1.66707e-05
-1.242e-05
-1.32302e-05
-1.7637e-05
-1.88294e-05
-1.94472e-05
-2.17967e-05
-2.35019e-05
-2.50222e-05
-2.79413e-05
-3.35947e-05
-4.14899e-05
-5.07191e-05
-6.01418e-05
-6.99788e-05
-8.07514e-05
-9.29646e-05
-0.000106077
-0.000119583
-0.00013327
-0.000147777
-0.000163798
-0.000181945
-0.000202242
-0.000224538
-0.000248714
-0.000275045
-0.000304043
-0.000336508
-0.000373449
-0.000416381
-0.000467681
-0.000531384
-0.000614369
-0.000728732
-0.000896458
-0.00115999
-0.00160792
-6.09762e-05
-6.25583e-05
-6.82189e-05
-7.33849e-05
-8.01026e-05
-8.88165e-05
-9.54967e-05
-0.000102571
-0.000113373
-0.000127462
-0.000143523
-0.00016193
-0.000182867
-0.000205494
-0.000227845
-0.000247384
-0.000261909
-0.00027016
-0.000272789
-0.000272823
-0.000273533
-0.000276964
-0.000283697
-0.000293026
-0.000303385
-0.00031295
-0.000320235
-0.000324266
-0.000324559
-0.000320892
-0.000313002
-0.000300241
-0.000281273
-0.000253696
-0.000213452
-0.000153696
-6.25337e-05
8.16907e-05
0.000320916
0.000743065
-0.000109357
-0.000110336
-0.000115423
-0.000120816
-0.00012635
-0.000133788
-0.000140678
-0.000147003
-0.000154756
-0.000164183
-0.000174076
-0.000184345
-0.000195657
-0.000208389
-0.000222409
-0.000237387
-0.000253345
-0.000270626
-0.000289654
-0.000310552
-0.000333203
-0.000357465
-0.000383425
-0.000411362
-0.000441583
-0.000474063
-0.000508561
-0.000544826
-0.00058278
-0.000622621
-0.00066488
-0.00071048
-0.000760911
-0.000818579
-0.000887467
-0.000974336
-0.00109103
-0.00125923
-0.00152088
-0.00196395
-0.000161515
-0.000166055
-0.000176902
-0.000190687
-0.000205473
-0.000222043
-0.000239303
-0.000257007
-0.00027648
-0.000298341
-0.000321833
-0.000346103
-0.000370338
-0.000393227
-0.000412895
-0.000427362
-0.000435805
-0.000440183
-0.000444168
-0.000450617
-0.000460405
-0.000472682
-0.000485831
-0.000498208
-0.000508629
-0.000516424
-0.000521256
-0.000522957
-0.000521417
-0.000516467
-0.000507739
-0.000494473
-0.000475271
-0.000447727
-0.000407802
-0.00034866
-0.000258408
-0.000115376
0.000122386
0.000542822
-0.000212488
-0.000215285
-0.000222988
-0.000233227
-0.000243999
-0.000255571
-0.000267652
-0.000280173
-0.00029348
-0.000307954
-0.000323271
-0.000339235
-0.000355977
-0.000373583
-0.000391987
-0.000411139
-0.000431238
-0.000452636
-0.000475642
-0.00050036
-0.000526736
-0.000554687
-0.000584234
-0.000615515
-0.000648525
-0.000683134
-0.000719156
-0.000756448
-0.000795003
-0.000835038
-0.000877068
-0.000922013
-0.000971386
-0.00102764
-0.00109481
-0.0011797
-0.00129417
-0.00145991
-0.00171889
-0.00215909
-0.000280788
-0.000287739
-0.000302213
-0.000321834
-0.000343961
-0.000367772
-0.000392425
-0.00041784
-0.000444082
-0.000470488
-0.000495486
-0.000517357
-0.000534889
-0.000547565
-0.000556525
-0.000564045
-0.000572297
-0.000582512
-0.000594832
-0.000608487
-0.000622293
-0.000635081
-0.000645994
-0.000654531
-0.000660622
-0.000664396
-0.00066598
-0.000665382
-0.000662448
-0.000656837
-0.000647964
-0.000634889
-0.0006161
-0.000589143
-0.000549972
-0.00049177
-0.000402654
-0.000260963
-2.4744e-05
0.00039396
-0.000329386
-0.000331239
-0.000336651
-0.000345632
-0.000358151
-0.000373455
-0.000390493
-0.000408244
-0.000427588
-0.000449636
-0.000474207
-0.000498788
-0.000520982
-0.000540029
-0.000556703
-0.000571978
-0.000586909
-0.000602249
-0.000618707
-0.000636669
-0.000656324
-0.000677596
-0.000700406
-0.0007247
-0.000750453
-0.00077761
-0.000806179
-0.0008362
-0.000867832
-0.000901377
-0.000937394
-0.00097681
-0.00102115
-0.00107287
-0.00113604
-0.00121748
-0.00132911
-0.00149263
-0.00175007
-0.0021895
-0.000416257
-0.00042327
-0.00043774
-0.000458412
-0.000484509
-0.000514254
-0.000545672
-0.000575782
-0.00060347
-0.000627934
-0.000649105
-0.000666596
-0.000680649
-0.000691731
-0.000700671
-0.000707964
-0.000713948
-0.00071867
-0.000722244
-0.000724711
-0.000726152
-0.000726505
-0.000725679
-0.000723493
-0.000719859
-0.000714747
-0.0007082
-0.000700206
-0.000690657
-0.000679248
-0.000665429
-0.000648258
-0.000626224
-0.000596866
-0.000556154
-0.000497299
-0.000408479
-0.000268123
-3.44337e-05
0.000380302
0.00626945
0.00634189
0.00662065
0.006797
0.00679293
0.0066137
0.00631866
0.00597813
0.00564411
0.00534491
0.0050914
0.00488347
0.00471347
0.00457053
0.00444406
0.00432557
0.00420923
0.00409162
0.00397127
0.00384811
0.00372296
0.00359707
0.00347176
0.00334807
0.00322667
0.00310774
0.00299103
0.00287597
0.00276179
0.00264763
0.00253269
0.00241629
0.00229785
0.002177
0.00205339
0.00192678
0.00179673
0.00166281
0.00152426
0.00138034
0.00123003
0.00107228
0.000905845
0.000729284
0.000541077
0.000339074
0.000121135
-0.000116321
-0.000377085
-0.000666995
-0.000991876
-0.00135592
-0.00176605
-0.00223284
-0.00276715
-0.00337273
-0.00405029
-0.00479672
-0.00557797
-0.00631869
-0.00690608
-0.00723672
-0.0072601
-0.00700268
-0.00659047
-0.00614407
-0.00575327
-0.00546026
-0.00526693
-0.00516367
-0.00513569
-0.00515421
-0.00520107
-0.00526735
-0.00534499
-0.00542863
-0.005517
-0.00560946
-0.00570545
-0.00580374
-0.00590521
-0.00600865
-0.00611423
-0.0062208
-0.00632965
-0.00643849
-0.00655013
-0.00666171
-0.00677501
-0.00688876
-0.00700301
-0.00711395
-0.00722555
-0.00732907
-0.00743052
-0.00752413
-0.00761302
-0.00769126
-0.00776338
-0.00782293
0.00495042
0.00502411
0.00547627
0.00591751
0.00618286
0.00623261
0.00609152
0.00583163
0.00552947
0.00523861
0.00498602
0.0047802
0.00461753
0.00448646
0.00437345
0.0042672
0.00416035
0.00404925
0.003933
0.00381235
0.00368894
0.00356455
0.00344072
0.00331854
0.00319859
0.00308098
0.00296544
0.00285138
0.00273803
0.00262456
0.00251017
0.00239418
0.00227604
0.00215536
0.0020318
0.0019053
0.00177543
0.00164176
0.00150348
0.00135987
0.00120985
0.00105241
0.000886254
0.000709978
0.00052208
0.000320405
0.000102875
-0.000134111
-0.000394208
-0.00068321
-0.0010069
-0.00136934
-0.00177731
-0.00224107
-0.00277115
-0.00337105
-0.00404091
-0.00477872
-0.00555217
-0.00628643
-0.00687
-0.0072018
-0.00723041
-0.00697922
-0.00657273
-0.00613068
-0.00574262
-0.00545155
-0.00525945
-0.0051569
-0.00512953
-0.00514853
-0.00519573
-0.00526242
-0.00534055
-0.00542465
-0.00551342
-0.00560629
-0.00570267
-0.0058013
-0.00590308
-0.0060068
-0.00611262
-0.0062194
-0.00632843
-0.00643742
-0.00654918
-0.00666087
-0.00677426
-0.00688809
-0.00700241
-0.00711342
-0.00722508
-0.00732866
-0.00743016
-0.00752383
-0.00761275
-0.00769106
-0.0077632
-0.0078228
0.0047588
0.00486372
0.00535772
0.00584383
0.00615009
0.0062327
0.00611216
0.00585921
0.00555328
0.00525276
0.00498891
0.00477292
0.00460313
0.00446856
0.00435487
0.00424936
0.00414338
0.00403249
0.00391549
0.00379325
0.00366776
0.00354123
0.00341552
0.00329186
0.00317089
0.00305261
0.00293664
0.00282225
0.00270861
0.00259483
0.00248012
0.00236383
0.00224546
0.00212467
0.0020011
0.00187434
0.00174396
0.00160961
0.00147064
0.00132639
0.00117584
0.00101796
0.00085146
0.000674928
0.000486821
0.000285037
6.74598e-05
-0.000169385
-0.000429035
-0.000716952
-0.00103861
-0.00139841
-0.00180245
-0.00226019
-0.00278146
-0.00336955
-0.00402368
-0.00473824
-0.00548213
-0.006188
-0.00675433
-0.00708834
-0.00713846
-0.00691657
-0.00653601
-0.00611469
-0.00574125
-0.00545683
-0.00526647
-0.00516403
-0.00513554
-0.00515303
-0.00519897
-0.00526457
-0.00534175
-0.00542516
-0.00551348
-0.00560594
-0.00570198
-0.00580036
-0.00590196
-0.00600557
-0.00611132
-0.00621808
-0.00632714
-0.00643618
-0.00654802
-0.0066598
-0.00677328
-0.00688721
-0.00700163
-0.00711273
-0.00722449
-0.00732816
-0.00742974
-0.0075235
-0.00761249
-0.00769087
-0.00776307
-0.00782271
0.00416556
0.00424988
0.0047389
0.00524613
0.00559643
0.00574141
0.00569187
0.00550658
0.00525716
0.00500002
0.00476799
0.00457472
0.00442178
0.00430164
0.00420214
0.0041112
0.00401968
0.00392224
0.00381694
0.00370422
0.00358613
0.00346532
0.00334423
0.00322462
0.00310744
0.00299286
0.00288043
0.00276931
0.00265851
0.00254709
0.00243428
0.00231949
0.0022023
0.00208244
0.00195962
0.00183357
0.0017039
0.00157023
0.00143188
0.00128818
0.00113811
0.000980632
0.000814465
0.000638189
0.0004503
0.000248682
3.12809e-05
-0.00020529
-0.000464384
-0.000750943
-0.00107036
-0.00142715
-0.0018269
-0.00227783
-0.00278913
-0.00336329
-0.00399766
-0.00468636
-0.00540074
-0.006079
-0.00662762
-0.00696161
-0.00703204
-0.00683984
-0.00648597
-0.00608598
-0.00572654
-0.00544965
-0.00526243
-0.005161
-0.0051324
-0.00514932
-0.00519457
-0.00525976
-0.00533688
-0.00542037
-0.00550883
-0.00560156
-0.00569792
-0.00579663
-0.00589853
-0.00600243
-0.00610846
-0.00621547
-0.00632476
-0.00643399
-0.006546
-0.00665793
-0.00677153
-0.00688557
-0.00700006
-0.00711126
-0.00722309
-0.00732688
-0.00742855
-0.00752247
-0.00761155
-0.00769014
-0.00776248
-0.00782224
0.00389917
0.00400207
0.0045162
0.00505158
0.00543092
0.00560451
0.00558125
0.00541788
0.00518499
0.0049392
0.00471433
0.00452522
0.00437468
0.00425657
0.00415967
0.00407208
0.00398432
0.00389047
0.00378804
0.00367715
0.00355979
0.00343885
0.00331716
0.00319689
0.00307924
0.00296446
0.00285206
0.00274101
0.00263018
0.00251852
0.00240524
0.00228981
0.00217192
0.00205139
0.001928
0.00180153
0.00167151
0.00153751
0.00139878
0.00125463
0.00110404
0.000946068
0.000779419
0.000602743
0.000414502
0.00021264
-4.88105e-06
-0.00024133
-0.000499888
-0.000785247
-0.0011025
-0.00145608
-0.00185118
-0.00229475
-0.00279525
-0.00335439
-0.00396845
-0.00463105
-0.00531488
-0.00596265
-0.00648975
-0.00681993
-0.00690799
-0.00674745
-0.00642598
-0.00605211
-0.00571153
-0.00544646
-0.0052643
-0.00516467
-0.00513582
-0.00515158
-0.00519565
-0.00525974
-0.00533588
-0.00541867
-0.00550667
-0.00559903
-0.0056951
-0.0057936
-0.00589538
-0.00599922
-0.00610526
-0.00621233
-0.00632173
-0.0064311
-0.00654321
-0.00665525
-0.00676894
-0.00688309
-0.00699766
-0.00710898
-0.00722091
-0.00732488
-0.00742667
-0.00752082
-0.00761004
-0.00768892
-0.00776149
-0.0078214
0.00357575
0.00367005
0.0041796
0.00471575
0.00510083
0.00528458
0.00527478
0.00512684
0.00491042
0.00468165
0.004474
0.00430195
0.00416801
0.00406564
0.00398331
0.00390896
0.00383311
0.00374993
0.00365708
0.00355482
0.00344533
0.00333165
0.00321673
0.00310279
0.00299102
0.00288166
0.00277417
0.00266749
0.00256048
0.00245212
0.0023417
0.00222877
0.00211309
0.00199456
0.00187301
0.00174822
0.00161973
0.00148709
0.00134954
0.00120642
0.00105673
0.000899548
0.000733648
0.000557681
0.000370147
0.000169008
-4.77272e-05
-0.000283186
-0.000540451
-0.000823836
-0.00113812
-0.00148755
-0.00187705
-0.00231231
-0.00280087
-0.00334403
-0.00393717
-0.00457307
-0.00522568
-0.00584288
-0.00634938
-0.00667649
-0.00678259
-0.00665496
-0.00636578
-0.00601793
-0.00569556
-0.00544107
-0.00526329
-0.00516413
-0.00513464
-0.00514935
-0.00519221
-0.00525537
-0.005331
-0.00541352
-0.00550139
-0.00559378
-0.00568997
-0.00578866
-0.00589061
-0.00599467
-0.00610093
-0.00620824
-0.00631785
-0.00642742
-0.00653969
-0.00665192
-0.00676571
-0.00687999
-0.0069946
-0.00710604
-0.00721801
-0.00732217
-0.00742404
-0.00751847
-0.00760782
-0.00768711
-0.00775992
-0.00782005
0.00334665
0.00344087
0.00394953
0.00448129
0.00486012
0.00503801
0.00502571
0.00488147
0.00467596
0.00446455
0.00427915
0.00413193
0.00402281
0.00394258
0.00387799
0.00381666
0.00374982
0.00367286
0.00358462
0.00348643
0.00338119
0.00327215
0.0031621
0.00305285
0.00294524
0.00283923
0.00273415
0.00262905
0.00252296
0.0024151
0.00230493
0.00219214
0.00207656
0.0019581
0.00183656
0.00171176
0.00158318
0.0014504
0.00131264
0.00116926
0.00101928
0.000861804
0.000695633
0.000519438
0.000331774
0.000130609
-8.59509e-05
-0.000320943
-0.000577272
-0.000858923
-0.00117038
-0.00151562
-0.0018993
-0.00232595
-0.00280218
-0.00332902
-0.00390105
-0.00451009
-0.00513194
-0.00571944
-0.00620582
-0.00652882
-0.00665021
-0.00655333
-0.00629686
-0.00597637
-0.00567384
-0.00543187
-0.00526016
-0.00516316
-0.00513387
-0.00514831
-0.00519062
-0.00525303
-0.00532804
-0.00541013
-0.00549775
-0.00558992
-0.00568595
-0.00578456
-0.00588646
-0.00599054
-0.00609683
-0.00620423
-0.00631393
-0.00642365
-0.00653602
-0.00664839
-0.00676222
-0.0068766
-0.00699122
-0.00710278
-0.00721476
-0.00731912
-0.00742105
-0.0075158
-0.00760526
-0.007685
-0.00775806
-0.00781844
0.00321136
0.00332754
0.00385177
0.00437707
0.00473012
0.00486797
0.00481254
0.00463591
0.00441604
0.004207
0.00403488
0.0039073
0.00381942
0.00375794
0.00370754
0.00365581
0.00359524
0.00352279
0.00343873
0.00334555
0.00324663
0.00314511
0.00304322
0.00294212
0.00284205
0.00274256
0.0026429
0.00254221
0.00243978
0.00233512
0.00222789
0.00211794
0.0020051
0.00188927
0.00177019
0.00164763
0.00152108
0.00139011
0.00125396
0.00111202
0.000963366
0.000807107
0.000642108
0.000467046
0.000280542
8.06126e-05
-0.000134586
-0.000367906
-0.000622156
-0.000900935
-0.00120847
-0.00154835
-0.00192496
-0.00234191
-0.00280472
-0.00331424
-0.00386437
-0.00444631
-0.00503764
-0.00559597
-0.00606207
-0.00637994
-0.00651497
-0.00644867
-0.00622632
-0.00593434
-0.0056522
-0.00542304
-0.00525784
-0.00516266
-0.00513325
-0.00514691
-0.00518819
-0.00524961
-0.0053237
-0.00540522
-0.00549252
-0.00558456
-0.00568053
-0.00577918
-0.00588116
-0.00598538
-0.00609185
-0.00619946
-0.00630936
-0.00641931
-0.00653183
-0.00664439
-0.0067583
-0.00687281
-0.00698746
-0.00709915
-0.00721114
-0.00731573
-0.00741771
-0.00751281
-0.00760238
-0.0076826
-0.00775593
-0.00781659
0.00302381
0.00307722
0.0035277
0.00398817
0.00430014
0.00442905
0.00439768
0.00426802
0.00410393
0.00394844
0.00382148
0.00372741
0.0036599
0.00360728
0.00355856
0.0035064
0.00344688
0.00337872
0.00330255
0.00322008
0.00313332
0.00304396
0.00295312
0.00286129
0.00276853
0.00267455
0.00257896
0.00248136
0.00238141
0.00227891
0.00217367
0.00206557
0.00195445
0.00184015
0.00172237
0.00160087
0.00147515
0.00134481
0.00120916
0.00106758
0.00091924
0.000763233
0.000598512
0.000423743
0.000237634
3.8249e-05
-0.000176184
-0.000408318
-0.000660875
-0.000937047
-0.00124083
-0.00157534
-0.00194474
-0.00235185
-0.00280105
-0.00329298
-0.00382123
-0.00437647
-0.00493798
-0.00546791
-0.00591397
-0.00622629
-0.00637348
-0.00633629
-0.00614787
-0.00588499
-0.00562407
-0.00540903
-0.00525165
-0.00515926
-0.00513028
-0.00514366
-0.00518443
-0.0052452
-0.00531881
-0.00540003
-0.00548716
-0.00557914
-0.00567517
-0.00577392
-0.00587597
-0.0059803
-0.00608689
-0.00619466
-0.00630472
-0.00641486
-0.0065275
-0.00664023
-0.00675421
-0.00686884
-0.00698349
-0.00709531
-0.00720731
-0.00731213
-0.00741416
-0.00750962
-0.00759931
-0.00768004
-0.00775365
-0.00781462
0.00489962
0.00481944
0.00433186
0.0038263
0.00346294