/*--------------------------------*- C++ -*----------------------------------*\
| =========                 |                                                 |
| \\      /  F ield         | OpenFOAM: The Open Source CFD Toolbox           |
|  \\    /   O peration     | Version:  2312                                  |
|   \\  /    A nd           | Website:  www.openfoam.com                      |
|    \\/     M anipulation  |                                                 |
\*---------------------------------------------------------------------------*/
FoamFile
{
    version     2.0;
    format      ascii;
    arch        "LSB;label=32;scalar=64";
    class       surfaceScalarField;
    location    "0.95";
    object      phi;
}
// * * * * * * * * * * * * * * * * * * * * * * * * * * * * * * * * * * * * * //

dimensions      [0 3 -1 0 0 0 0];

oriented        oriented;

internalField   nonuniform List<scalar> 
11020
(
3.87753e-06
-6.60841e-08
3.87739e-06
5.20808e-08
3.87763e-06
-4.51588e-08
3.87769e-06
3.67153e-08
3.87752e-06
-3.01458e-08
3.87772e-06
2.49712e-08
3.87722e-06
-2.02853e-08
3.87748e-06
1.66785e-08
3.87679e-06
-1.29116e-08
3.87701e-06
1.14728e-08
3.87619e-06
-7.56574e-09
3.87629e-06
8.32487e-09
3.8754e-06
-3.70063e-09
3.87539e-06
6.51337e-09
3.87451e-06
-1.34215e-09
3.87436e-06
5.34942e-09
3.87356e-06
5.50668e-11
3.87329e-06
4.71949e-09
3.87255e-06
8.85428e-10
3.87221e-06
4.22784e-09
3.87146e-06
1.32011e-09
3.87102e-06
3.83273e-09
3.87027e-06
1.69496e-09
3.8697e-06
3.65514e-09
3.86891e-06
2.16473e-09
3.86825e-06
3.64432e-09
3.86742e-06
2.58222e-09
3.86668e-06
3.66095e-09
3.86579e-06
2.89734e-09
3.86492e-06
3.7138e-09
3.86386e-06
3.26362e-09
3.86271e-06
4.06935e-09
3.86131e-06
4.11018e-09
3.85974e-06
5.19574e-09
3.85794e-06
5.70894e-09
3.85597e-06
6.8878e-09
3.85377e-06
7.56502e-09
3.85134e-06
8.87789e-09
3.84862e-06
1.00559e-08
1.18482e-08
3.84564e-06
4.18296e-06
-6.31856e-08
4.18755e-06
4.74876e-08
4.18402e-06
-4.16256e-08
4.18809e-06
3.26475e-08
4.18452e-06
-2.65763e-08
4.18803e-06
2.1456e-08
4.1846e-06
-1.68545e-08
4.18754e-06
1.37452e-08
4.18445e-06
-9.82003e-09
4.18682e-06
9.09945e-09
4.18407e-06
-4.81555e-09
4.18582e-06
6.57511e-09
4.18342e-06
-1.3047e-09
4.18464e-06
5.29294e-09
4.18264e-06
6.6346e-10
4.18339e-06
4.60001e-09
4.18178e-06
1.66633e-09
4.18217e-06
4.32281e-09
4.18086e-06
2.1942e-09
4.18097e-06
4.12319e-09
4.17973e-06
2.56229e-09
4.17958e-06
3.97609e-09
4.1784e-06
2.88141e-09
4.17806e-06
3.99279e-09
4.17694e-06
3.28663e-09
4.17643e-06
4.14985e-09
4.17532e-06
3.68889e-09
4.17463e-06
4.35125e-09
4.17344e-06
4.08906e-09
4.17247e-06
4.68219e-09
4.17104e-06
4.69661e-09
4.16969e-06
5.41948e-09
4.16802e-06
5.78215e-09
4.16656e-06
6.65791e-09
4.16503e-06
7.23468e-09
4.16377e-06
8.15136e-09
4.16252e-06
8.81746e-09
4.16161e-06
9.77987e-09
4.16103e-06
1.06378e-08
1.17206e-08
4.16116e-06
4.51651e-06
-5.96375e-08
4.52063e-06
4.33729e-08
4.5169e-06
-3.78993e-08
4.52049e-06
2.9062e-08
4.51708e-06
-2.31692e-08
4.52001e-06
1.85277e-08
4.51691e-06
-1.3752e-08
4.51924e-06
1.14151e-08
4.51657e-06
-7.15503e-09
4.51839e-06
7.28459e-09
4.5161e-06
-2.52431e-09
4.51733e-06
5.34048e-09
4.51537e-06
6.56314e-10
4.51614e-06
4.51972e-09
4.5145e-06
2.30292e-09
4.5149e-06
4.20659e-09
4.51355e-06
3.01077e-09
4.51368e-06
4.19674e-09
4.51254e-06
3.33416e-09
4.51246e-06
4.20296e-09
4.51138e-06
3.64186e-09
4.51108e-06
4.27909e-09
4.50998e-06
3.97503e-09
4.50949e-06
4.48292e-09
4.50841e-06
4.3693e-09
4.50777e-06
4.79282e-09
4.50667e-06
4.7835e-09
4.5059e-06
5.12519e-09
4.50474e-06
5.24957e-09
4.50365e-06
5.7676e-09
4.50216e-06
6.18455e-09
4.5007e-06
6.87938e-09
4.49903e-06
7.45579e-09
4.49757e-06
8.11866e-09
4.49614e-06
8.66273e-09
4.49498e-06
9.31706e-09
4.49386e-06
9.9298e-09
4.49302e-06
1.06222e-08
4.49242e-06
1.12366e-08
1.18171e-08
4.49233e-06
4.87782e-06
-5.65119e-08
4.88103e-06
4.01639e-08
4.87761e-06
-3.44738e-08
4.88054e-06
2.61275e-08
4.87749e-06
-2.01212e-08
4.87988e-06
1.61363e-08
4.87709e-06
-1.09609e-08
4.87896e-06
9.55063e-09
4.87655e-06
-4.74652e-09
4.87789e-06
5.94347e-09
4.87594e-06
-5.78814e-10
4.87669e-06
4.59743e-09
4.8752e-06
2.14833e-09
4.87537e-06
4.34528e-09
4.87437e-06
3.29929e-09
4.87418e-06
4.40369e-09
4.87339e-06
3.79706e-09
4.873e-06
4.59098e-09
4.87217e-06
4.158e-09
4.87165e-06
4.72655e-09
4.8708e-06
4.48563e-09
4.87015e-06
4.93271e-09
4.86926e-06
4.86454e-09
4.86848e-06
5.25953e-09
4.86753e-06
5.3208e-09
4.86661e-06
5.7153e-09
4.86548e-06
5.9155e-09
4.86426e-06
6.34228e-09
4.86285e-06
6.66221e-09
4.86147e-06
7.1417e-09
4.86005e-06
7.6088e-09
4.85869e-06
8.23496e-09
4.85738e-06
8.77476e-09
4.85615e-06
9.34475e-09
4.85501e-06
9.79822e-09
4.85406e-06
1.02704e-08
4.85331e-06
1.06768e-08
4.85285e-06
1.10832e-08
4.85269e-06
1.13951e-08
1.16238e-08
4.85289e-06
5.26757e-06
-5.34345e-08
5.2707e-06
3.70301e-08
5.26715e-06
-3.09234e-08
5.27005e-06
2.32339e-08
5.26694e-06
-1.7014e-08
5.26933e-06
1.37486e-08
5.26652e-06
-8.15736e-09
5.26839e-06
7.68705e-09
5.26588e-06
-2.24399e-09
5.26711e-06
4.71563e-09
5.26517e-06
1.3598e-09
5.26579e-06
3.98567e-09
5.2644e-06
3.53307e-09
5.26441e-06
4.33431e-09
5.26353e-06
4.17907e-09
5.26316e-06
4.77625e-09
5.26231e-06
4.64831e-09
5.26184e-06
5.06343e-09
5.26099e-06
5.00448e-09
5.26041e-06
5.30581e-09
5.25954e-06
5.35715e-09
5.25882e-06
5.64707e-09
5.25789e-06
5.79738e-09
5.25704e-06
6.11566e-09
5.25604e-06
6.31862e-09
5.25509e-06
6.66014e-09
5.25404e-06
6.97109e-09
5.25294e-06
7.4359e-09
5.2516e-06
8.00767e-09
5.2501e-06
8.63569e-09
5.24851e-06
9.20445e-09
5.24702e-06
9.72672e-09
5.24565e-06
1.01373e-08
5.24449e-06
1.0506e-08
5.24349e-06
1.08028e-08
5.24267e-06
1.10836e-08
5.24203e-06
1.13196e-08
5.24162e-06
1.14946e-08
5.24144e-06
1.15718e-08
1.1574e-08
5.24149e-06
5.68825e-06
-5.02216e-08
5.69156e-06
3.37185e-08
5.68781e-06
-2.71766e-08
5.69074e-06
2.0308e-08
5.68754e-06
-1.38129e-08
5.68989e-06
1.13937e-08
5.68717e-06
-5.43369e-09
5.68894e-06
5.91025e-09
5.68661e-06
8.9691e-11
5.68744e-06
3.88604e-09
5.68594e-06
2.85589e-09
5.68605e-06
3.88436e-09
5.68528e-06
4.29803e-09
5.68482e-06
4.79097e-09
5.68394e-06
5.06719e-09
5.68337e-06
5.3461e-09
5.68253e-06
5.48602e-09
5.68191e-06
5.67913e-09
5.6811e-06
5.81844e-09
5.68039e-06
6.01522e-09
5.67953e-06
6.21314e-09
5.67872e-06
6.45666e-09
5.6778e-06
6.71828e-09
5.67687e-06
7.04782e-09
5.67575e-06
7.43631e-09
5.67452e-06
7.89106e-09
5.67311e-06
8.38482e-09
5.67165e-06
8.89844e-09
5.67029e-06
9.36195e-09
5.66902e-06
9.90232e-09
5.66778e-06
1.04488e-08
5.66658e-06
1.09276e-08
5.66538e-06
1.13364e-08
5.66429e-06
1.16004e-08
5.66332e-06
1.17643e-08
5.66256e-06
1.18519e-08
5.66201e-06
1.18703e-08
5.6617e-06
1.17955e-08
5.66164e-06
1.16368e-08
1.13859e-08
5.66183e-06
6.14247e-06
-4.68208e-08
6.146e-06
3.01857e-08
6.14205e-06
-2.32292e-08
6.14506e-06
1.73053e-08
6.14173e-06
-1.04819e-08
6.14408e-06
9.04197e-09
6.14134e-06
-2.69225e-09
6.14307e-06
4.17906e-09
6.14084e-06
2.31674e-09
6.14144e-06
3.29074e-09
6.14021e-06
4.07849e-09
6.1401e-06
3.99704e-09
6.13935e-06
5.05301e-09
6.13886e-06
5.27565e-09
6.13787e-06
6.05809e-09
6.13723e-06
5.9894e-09
6.13633e-06
6.38398e-09
6.13566e-06
6.34861e-09
6.13478e-06
6.69586e-09
6.13402e-06
6.78114e-09
6.13308e-06
7.14597e-09
6.13221e-06
7.32793e-09
6.1312e-06
7.73339e-09
6.13022e-06
8.02661e-09
6.12918e-06
8.47163e-09
6.12819e-06
8.8815e-09
6.12707e-06
9.50616e-09
6.12582e-06
1.01486e-08
6.12424e-06
1.09396e-08
6.12265e-06
1.14989e-08
6.12113e-06
1.19629e-08
6.11983e-06
1.22319e-08
6.1187e-06
1.24613e-08
6.11769e-06
1.2611e-08
6.11678e-06
1.26739e-08
6.11604e-06
1.25995e-08
6.11547e-06
1.24374e-08
6.11512e-06
1.21403e-08
6.11501e-06
1.17504e-08
1.11517e-08
6.11524e-06
6.63299e-06
-4.3248e-08
6.63667e-06
2.65052e-08
6.63261e-06
-1.91683e-08
6.63562e-06
1.42984e-08
6.63232e-06
-7.18221e-09
6.6345e-06
6.86001e-09
6.63194e-06
-1.33838e-10
6.63327e-06
2.85151e-09
6.6315e-06
4.08113e-09
6.63156e-06
3.22979e-09
6.63084e-06
4.80557e-09
6.63054e-06
4.29189e-09
6.62956e-06
6.0318e-09
6.62912e-06
5.71577e-09
6.62805e-06
7.12718e-09
6.62743e-06
6.61745e-09
6.62642e-06
7.38932e-09
6.62577e-06
6.99812e-09
6.62477e-06
7.69916e-09
6.624e-06
7.54437e-09
6.62292e-06
8.22887e-09
6.62205e-06
8.20217e-09
6.62092e-06
8.86118e-09
6.61995e-06
8.99974e-09
6.6187e-06
9.71549e-09
6.61742e-06
1.01681e-08
6.61585e-06
1.1067e-08
6.61438e-06
1.16216e-08
6.61295e-06
1.23725e-08
6.61173e-06
1.27151e-08
6.61053e-06
1.31632e-08
6.60943e-06
1.33333e-08
6.60832e-06
1.35692e-08
6.60736e-06
1.35767e-08
6.60645e-06
1.3581e-08
6.60571e-06
1.33427e-08
6.60509e-06
1.3054e-08
6.60467e-06
1.25621e-08
6.60425e-06
1.21653e-08
1.139e-08
6.60402e-06
7.1627e-06
-3.95212e-08
7.16648e-06
2.27315e-08
7.16231e-06
-1.49981e-08
7.16534e-06
1.12664e-08
7.16211e-06
-3.95264e-09
7.16416e-06
4.81424e-09
7.16175e-06
2.26967e-09
7.16265e-06
1.95283e-09
7.16138e-06
5.35004e-09
7.161e-06
3.60731e-09
7.16035e-06
5.46086e-09
7.15995e-06
4.68579e-09
7.15902e-06
6.96325e-09
7.15846e-06
6.27401e-09
7.15747e-06
8.12371e-09
7.15676e-06
7.3261e-09
7.15577e-06
8.37781e-09
7.15502e-06
7.7445e-09
7.154e-06
8.71976e-09
7.15316e-06
8.39179e-09
7.15204e-06
9.34893e-09
7.15102e-06
9.21781e-09
7.14973e-06
1.01556e-08
7.14846e-06
1.02649e-08
7.14691e-06
1.12629e-08
7.14547e-06
1.16135e-08
7.14403e-06
1.25096e-08
7.14281e-06
1.28379e-08
7.14166e-06
1.35184e-08
7.1406e-06
1.37813e-08
7.13948e-06
1.42813e-08
7.13839e-06
1.44264e-08
7.13722e-06
1.47391e-08
7.13607e-06
1.4728e-08
7.13489e-06
1.47522e-08
7.13377e-06
1.4462e-08
7.13269e-06
1.41401e-08
7.13181e-06
1.34386e-08
7.13168e-06
1.22998e-08
1.07215e-08
7.13235e-06
7.73477e-06
-3.56838e-08
7.73856e-06
1.89374e-08
7.73438e-06
-1.08156e-08
7.73726e-06
8.38894e-09
7.73434e-06
-1.04168e-09
7.73591e-06
3.25193e-09
7.73424e-06
3.93619e-09
7.7338e-06
2.39184e-09
7.73363e-06
5.52291e-09
7.73284e-06
4.39213e-09
7.73229e-06
6.01255e-09
7.73148e-06
5.50046e-09
7.73085e-06
7.59112e-09
7.72995e-06
7.17279e-09
7.72926e-06
8.81725e-09
7.72828e-06
8.308e-09
7.7275e-06
9.15692e-09
7.72646e-06
8.77654e-09
7.72558e-06
9.60152e-09
7.72448e-06
9.49423e-09
7.72347e-06
1.03605e-08
7.72225e-06
1.04386e-08
7.72105e-06
1.13582e-08
7.71953e-06
1.1776e-08
7.71803e-06
1.27709e-08
7.71645e-06
1.31937e-08
7.71505e-06
1.39003e-08
7.71377e-06
1.41236e-08
7.71272e-06
1.45718e-08
7.71183e-06
1.46688e-08
7.71124e-06
1.48732e-08
7.71097e-06
1.46936e-08
7.7111e-06
1.4605e-08
7.71155e-06
1.42822e-08
7.71229e-06
1.4012e-08
7.71316e-06
1.35866e-08
7.71413e-06
1.31776e-08
7.71496e-06
1.26068e-08
7.71512e-06
1.2136e-08
1.12519e-08
7.71459e-06
8.35254e-06
-3.17655e-08
8.35632e-06
1.51581e-08
8.35219e-06
-6.68601e-09
8.35483e-06
5.75128e-09
8.35229e-06
1.49297e-09
8.35329e-06
2.25652e-09
8.35266e-06
4.56449e-09
8.35139e-06
3.65936e-09
8.35121e-06
5.71046e-09
8.35027e-06
5.32442e-09
8.3498e-06
6.49029e-09
8.34877e-06
6.53027e-09
8.34824e-06
8.11942e-09
8.34718e-06
8.22751e-09
8.34659e-06
9.4088e-09
8.34551e-06
9.39415e-09
8.34477e-06
9.89256e-09
8.34362e-06
9.92842e-09
8.34272e-06
1.05015e-08
8.34144e-06
1.07717e-08
8.34032e-06
1.14828e-08
8.33881e-06
1.19506e-08
8.33736e-06
1.28075e-08
8.33574e-06
1.33945e-08
8.33441e-06
1.41014e-08
8.33308e-06
1.45196e-08
8.332e-06
1.49797e-08
8.33095e-06
1.51814e-08
8.33012e-06
1.5396e-08
8.32946e-06
1.5329e-08
8.32919e-06
1.51431e-08
8.3291e-06
1.47875e-08
8.32925e-06
1.44495e-08
8.32942e-06
1.41157e-08
8.3297e-06
1.37339e-08
8.33001e-06
1.32766e-08
8.33039e-06
1.27908e-08
8.33079e-06
1.22072e-08
8.33136e-06
1.15653e-08
1.07554e-08
8.33186e-06
9.0197e-06
-2.78212e-08
9.02339e-06
1.1468e-08
9.01949e-06
-2.78184e-09
9.02158e-06
3.66184e-09
9.01976e-06
3.31558e-09
9.01948e-06
2.53196e-09
9.01958e-06
4.46454e-09
9.01876e-06
4.47752e-09
9.01822e-06
6.25308e-09
9.01724e-06
6.30798e-09
9.01658e-06
7.14214e-09
9.01559e-06
7.52538e-09
9.01491e-06
8.80098e-09
9.01391e-06
9.22609e-09
9.01317e-06
1.01444e-08
9.01215e-06
1.04123e-08
9.01125e-06
1.07926e-08
9.01014e-06
1.10422e-08
9.0091e-06
1.15407e-08
9.00789e-06
1.19879e-08
9.00658e-06
1.27847e-08
9.00504e-06
1.34927e-08
9.00351e-06
1.43429e-08
9.00198e-06
1.49171e-08
9.00062e-06
1.54615e-08
8.9994e-06
1.57385e-08
8.99842e-06
1.59691e-08
8.99772e-06
1.58771e-08
8.99736e-06
1.5752e-08
8.99719e-06
1.55014e-08
8.99711e-06
1.52226e-08
8.99703e-06
1.48681e-08
8.99696e-06
1.45177e-08
8.99693e-06
1.41519e-08
8.99695e-06
1.37076e-08
8.99706e-06
1.31681e-08
8.99721e-06
1.26453e-08
8.99734e-06
1.20763e-08
8.99741e-06
1.14943e-08
1.09541e-08
8.99721e-06
9.74019e-06
-2.39044e-08
9.74369e-06
7.96579e-09
9.74027e-06
6.37579e-10
9.74159e-06
2.3369e-09
9.74092e-06
3.9931e-09
9.73985e-06
3.59444e-09
9.73963e-06
4.68324e-09
9.73892e-06
5.19055e-09
9.73841e-06
6.76117e-09
9.73745e-06
7.27517e-09
9.73669e-06
7.89781e-09
9.73567e-06
8.54864e-09
9.73488e-06
9.58634e-09
9.73388e-06
1.02259e-08
9.73304e-06
1.09821e-08
9.73203e-06
1.14225e-08
9.731e-06
1.1824e-08
9.72976e-06
1.22867e-08
9.72841e-06
1.28848e-08
9.72685e-06
1.35493e-08
9.7253e-06
1.43335e-08
9.72386e-06
1.49323e-08
9.72266e-06
1.55438e-08
9.72168e-06
1.59058e-08
9.72095e-06
1.6184e-08
9.72043e-06
1.62577e-08
9.7201e-06
1.63071e-08
9.71966e-06
1.63167e-08
9.71914e-06
1.62666e-08
9.7186e-06
1.60396e-08
9.71809e-06
1.57357e-08
9.71764e-06
1.53229e-08
9.71729e-06
1.48581e-08
9.71717e-06
1.42806e-08
9.71711e-06
1.37599e-08
9.71706e-06
1.32171e-08
9.71705e-06
1.26639e-08
9.71703e-06
1.20892e-08
9.71699e-06
1.15406e-08
1.09599e-08
9.71698e-06
1.05183e-05
-2.01208e-08
1.05215e-05
4.79958e-09
1.05196e-05
2.52085e-09
1.05193e-05
2.62017e-09
1.05189e-05
4.42511e-09
1.05178e-05
4.7001e-09
1.05172e-05
5.28603e-09
1.05164e-05
5.94857e-09
1.0516e-05
7.15094e-09
1.05152e-05
8.07833e-09
1.05143e-05
8.75726e-09
1.05133e-05
9.59396e-09
1.05124e-05
1.04815e-08
1.05114e-05
1.1244e-08
1.05104e-05
1.19216e-08
1.05094e-05
1.24854e-08
1.05083e-05
1.29343e-08
1.0507e-05
1.35554e-08
1.05056e-05
1.43172e-08
1.0504e-05
1.51095e-08
1.05025e-05
1.58456e-08
1.05011e-05
1.63269e-08
1.04999e-05
1.67792e-08
1.04987e-05
1.7116e-08
1.04975e-05
1.73517e-08
1.04964e-05
1.73817e-08
1.04954e-05
1.72814e-08
1.04948e-05
1.69601e-08
1.04945e-05
1.6493e-08
1.04945e-05
1.60471e-08
1.04946e-05
1.56135e-08
1.04948e-05
1.51745e-08
1.04949e-05
1.47451e-08
1.04949e-05
1.43267e-08
1.04948e-05
1.38292e-08
1.04947e-05
1.32772e-08
1.04947e-05
1.2702e-08
1.04947e-05
1.21076e-08
1.04947e-05
1.15113e-08
1.09263e-08
1.04947e-05
1.13586e-05
-1.65193e-08
1.13613e-05
2.04582e-09
1.13601e-05
3.69785e-09
1.13593e-05
3.46735e-09
1.13588e-05
4.92675e-09
1.13581e-05
5.34999e-09
1.13575e-05
5.94385e-09
1.13566e-05
6.82549e-09
1.13559e-05
7.87592e-09
1.1355e-05
8.9328e-09
1.13541e-05
9.68769e-09
1.13531e-05
1.06272e-08
1.13521e-05
1.14703e-08
1.1351e-05
1.23062e-08
1.135e-05
1.2986e-08
1.13488e-05
1.3657e-08
1.13474e-05
1.42931e-08
1.13459e-05
1.50989e-08
1.13443e-05
1.58628e-08
1.13429e-05
1.6531e-08
1.13416e-05
1.71255e-08
1.13404e-05
1.75133e-08
1.13394e-05
1.78242e-08
1.13386e-05
1.79485e-08
1.1338e-05
1.79694e-08
1.13376e-05
1.77598e-08
1.13373e-05
1.75596e-08
1.1337e-05
1.72566e-08
1.13366e-05
1.69145e-08
1.13361e-05
1.64964e-08
1.13357e-05
1.60778e-08
1.13353e-05
1.55475e-08
1.1335e-05
1.50108e-08
1.13349e-05
1.44537e-08
1.13348e-05
1.38886e-08
1.13348e-05
1.32989e-08
1.13348e-05
1.26984e-08
1.13348e-05
1.20834e-08
1.13349e-05
1.14681e-08
1.08285e-08
1.1335e-05
1.2266e-05
-1.31918e-08
1.22683e-05
-2.0238e-10
1.22675e-05
4.43208e-09
1.22666e-05
4.43452e-09
1.22659e-05
5.59499e-09
1.22652e-05
5.99116e-09
1.22645e-05
6.64853e-09
1.22637e-05
7.67329e-09
1.22629e-05
8.71232e-09
1.2262e-05
9.83442e-09
1.2261e-05
1.06688e-08
1.22599e-05
1.16768e-08
1.22589e-05
1.25316e-08
1.22577e-05
1.34551e-08
1.22565e-05
1.41982e-08
1.22551e-05
1.50535e-08
1.22536e-05
1.58433e-08
1.2252e-05
1.66452e-08
1.22506e-05
1.72664e-08
1.22494e-05
1.77468e-08
1.22484e-05
1.81462e-08
1.22475e-05
1.83658e-08
1.22468e-05
1.8516e-08
1.22463e-05
1.84952e-08
1.22458e-05
1.84243e-08
1.22452e-05
1.83343e-08
1.22447e-05
1.81125e-08
1.22442e-05
1.77935e-08
1.22436e-05
1.74271e-08
1.22432e-05
1.69588e-08
1.22428e-05
1.64305e-08
1.22426e-05
1.58189e-08
1.22424e-05
1.51799e-08
1.22423e-05
1.4563e-08
1.22422e-05
1.39462e-08
1.22422e-05
1.33165e-08
1.22422e-05
1.26873e-08
1.22422e-05
1.20534e-08
1.22423e-05
1.14265e-08
1.07901e-08
1.22423e-05
1.32459e-05
-1.01916e-08
1.32476e-05
-1.88212e-09
1.32473e-05
4.79158e-09
1.32463e-05
5.35289e-09
1.32455e-05
6.40089e-09
1.32448e-05
6.73526e-09
1.3244e-05
7.43043e-09
1.32432e-05
8.51116e-09
1.32423e-05
9.59055e-09
1.32414e-05
1.07578e-08
1.32403e-05
1.17054e-08
1.32392e-05
1.27806e-08
1.32381e-05
1.36605e-08
1.32368e-05
1.4721e-08
1.32354e-05
1.56374e-08
1.32338e-05
1.65957e-08
1.32323e-05
1.73577e-08
1.3231e-05
1.7966e-08
1.32297e-05
1.85381e-08
1.32285e-05
1.89525e-08
1.32274e-05
1.93199e-08
1.32262e-05
1.95183e-08
1.32251e-05
1.96234e-08
1.32241e-05
1.95091e-08
1.32233e-05
1.91867e-08
1.32229e-05
1.88014e-08
1.32226e-05
1.84068e-08
1.32224e-05
1.79409e-08
1.32224e-05
1.74633e-08
1.32224e-05
1.69412e-08
1.32224e-05
1.64122e-08
1.32224e-05
1.58551e-08
1.32223e-05
1.52834e-08
1.32222e-05
1.46381e-08
1.32222e-05
1.3983e-08
1.32222e-05
1.33156e-08
1.32222e-05
1.26544e-08
1.32223e-05
1.19963e-08
1.32223e-05
1.13527e-08
1.07385e-08
1.32224e-05
1.43042e-05
-7.61486e-09
1.43051e-05
-2.77451e-09
1.43051e-05
4.74458e-09
1.43043e-05
6.10927e-09
1.43035e-05
7.28501e-09
1.43026e-05
7.58868e-09
1.43017e-05
8.30984e-09
1.43008e-05
9.39515e-09
1.42999e-05
1.04913e-08
1.4299e-05
1.16966e-08
1.4298e-05
1.2742e-08
1.42968e-05
1.39563e-08
1.42954e-05
1.50301e-08
1.42939e-05
1.62889e-08
1.42922e-05
1.72395e-08
1.42907e-05
1.80959e-08
1.42894e-05
1.86752e-08
1.42883e-05
1.91444e-08
1.42873e-05
1.94997e-08
1.42865e-05
1.97047e-08
1.4286e-05
1.98636e-08
1.42856e-05
1.98909e-08
1.42853e-05
1.99036e-08
1.4285e-05
1.98311e-08
1.42844e-05
1.98304e-08
1.42836e-05
1.95821e-08
1.42828e-05
1.92153e-08
1.4282e-05
1.86819e-08
1.42814e-05
1.80722e-08
1.4281e-05
1.73902e-08
1.42807e-05
1.67059e-08
1.42806e-05
1.59931e-08
1.42805e-05
1.53029e-08
1.42806e-05
1.46246e-08
1.42806e-05
1.39519e-08
1.42806e-05
1.32716e-08
1.42807e-05
1.25942e-08
1.42808e-05
1.19198e-08
1.42808e-05
1.1273e-08
1.06019e-08
1.4281e-05
1.54469e-05
-5.49514e-09
1.54463e-05
-2.22631e-09
1.54472e-05
3.8854e-09
1.54468e-05
6.46133e-09
1.54459e-05
8.19501e-09
1.54449e-05
8.6007e-09
1.54439e-05
9.27523e-09
1.5443e-05
1.03348e-08
1.54421e-05
1.14456e-08
1.54409e-05
1.28423e-08
1.54395e-05
1.41025e-08
1.5438e-05
1.55406e-08
1.54364e-05
1.65615e-08
1.5435e-05
1.76796e-08
1.54338e-05
1.85027e-08
1.54326e-05
1.9241e-08
1.54315e-05
1.97887e-08
1.54304e-05
2.02232e-08
1.54293e-05
2.06062e-08
1.54282e-05
2.08158e-08
1.54271e-05
2.0953e-08
1.54261e-05
2.09242e-08
1.54252e-05
2.0831e-08
1.54244e-05
2.05929e-08
1.5424e-05
2.02753e-08
1.54238e-05
1.97565e-08
1.54237e-05
1.92633e-08
1.54238e-05
1.86764e-08
1.54238e-05
1.80643e-08
1.54237e-05
1.74e-08
1.54237e-05
1.67306e-08
1.54237e-05
1.60312e-08
1.54237e-05
1.53295e-08
1.54237e-05
1.46129e-08
1.54237e-05
1.3904e-08
1.54238e-05
1.31947e-08
1.54239e-05
1.2499e-08
1.5424e-05
1.18128e-08
1.54241e-05
1.11463e-08
1.04825e-08
1.54242e-05
1.66808e-05
-3.83123e-09
1.66797e-05
-1.1757e-09
1.66805e-05
3.14784e-09
1.66804e-05
6.55483e-09
1.66796e-05
9.02568e-09
1.66785e-05
9.70129e-09
1.66772e-05
1.0511e-08
1.66759e-05
1.16696e-08
1.66745e-05
1.28157e-08
1.66732e-05
1.41474e-08
1.6672e-05
1.53451e-08
1.66707e-05
1.67929e-08
1.66695e-05
1.77676e-08
1.66683e-05
1.89031e-08
1.66671e-05
1.97006e-08
1.66659e-05
2.03909e-08
1.66648e-05
2.09117e-08
1.66637e-05
2.13095e-08
1.66627e-05
2.15876e-08
1.66619e-05
2.16517e-08
1.66612e-05
2.16744e-08
1.66606e-05
2.1534e-08
1.66601e-05
2.13313e-08
1.66597e-05
2.09853e-08
1.66594e-05
2.06068e-08
1.66589e-05
2.01827e-08
1.66586e-05
1.96163e-08
1.66583e-05
1.89435e-08
1.66581e-05
1.8244e-08
1.6658e-05
1.75027e-08
1.6658e-05
1.6765e-08
1.6658e-05
1.60128e-08
1.66581e-05
1.52605e-08
1.66582e-05
1.45264e-08
1.66583e-05
1.38034e-08
1.66584e-05
1.30803e-08
1.66585e-05
1.2371e-08
1.66586e-05
1.16777e-08
1.66588e-05
1.10131e-08
1.03343e-08
1.66589e-05
1.8013e-05
-2.457e-09
1.8012e-05
-1.94103e-10
1.8012e-05
3.18365e-09
1.80122e-05
6.38816e-09
1.80116e-05
9.59774e-09
1.80106e-05
1.0733e-08
1.80093e-05
1.18253e-08
1.80079e-05
1.30295e-08
1.80065e-05
1.42434e-08
1.80051e-05
1.55194e-08
1.80038e-05
1.66385e-08
1.80025e-05
1.80561e-08
1.80013e-05
1.89646e-08
1.80002e-05
2.00665e-08
1.7999e-05
2.08391e-08
1.79979e-05
2.14954e-08
1.79969e-05
2.19648e-08
1.79959e-05
2.22855e-08
1.79949e-05
2.25508e-08
1.7994e-05
2.26279e-08
1.7993e-05
2.26144e-08
1.79922e-05
2.24116e-08
1.79914e-05
2.21092e-08
1.79907e-05
2.16197e-08
1.79904e-05
2.09718e-08
1.79903e-05
2.02233e-08
1.79905e-05
1.94885e-08
1.79907e-05
1.87384e-08
1.79909e-05
1.80245e-08
1.79911e-05
1.73132e-08
1.79912e-05
1.66212e-08
1.79913e-05
1.59161e-08
1.79914e-05
1.51768e-08
1.79915e-05
1.4426e-08
1.79916e-05
1.36803e-08
1.79918e-05
1.29318e-08
1.79919e-05
1.22136e-08
1.79921e-05
1.15149e-08
1.79923e-05
1.08399e-08
1.01714e-08
1.79924e-05
1.94516e-05
-1.3771e-09
1.94506e-05
8.08668e-10
1.94501e-05
3.73109e-09
1.94502e-05
6.27354e-09
1.94499e-05
9.87924e-09
1.9449e-05
1.16056e-08
1.94477e-05
1.31005e-08
1.94464e-05
1.44163e-08
1.94449e-05
1.57194e-08
1.94435e-05
1.69421e-08
1.94421e-05
1.79588e-08
1.94409e-05
1.93002e-08
1.94397e-05
2.01631e-08
1.94386e-05
2.11896e-08
1.94375e-05
2.19425e-08
1.94364e-05
2.25447e-08
1.94354e-05
2.29755e-08
1.94345e-05
2.32209e-08
1.94337e-05
2.33547e-08
1.9433e-05
2.32721e-08
1.94325e-05
2.31108e-08
1.94322e-05
2.27697e-08
1.94319e-05
2.23441e-08
1.94318e-05
2.17766e-08
1.94316e-05
2.11676e-08
1.94313e-05
2.04574e-08
1.94312e-05
1.96793e-08
1.9431e-05
1.88714e-08
1.9431e-05
1.80848e-08
1.9431e-05
1.73055e-08
1.9431e-05
1.65425e-08
1.94312e-05
1.57805e-08
1.94313e-05
1.50226e-08
1.94315e-05
1.42621e-08
1.94317e-05
1.35071e-08
1.94319e-05
1.27556e-08
1.9432e-05
1.20314e-08
1.94322e-05
1.13299e-08
1.94324e-05
1.06543e-08
9.9872e-09
1.94326e-05
2.1005e-05
-5.3829e-10
2.10039e-05
1.85357e-09
2.10033e-05
4.32317e-09
2.1003e-05
6.59515e-09
2.10028e-05
1.00765e-08
2.10022e-05
1.22363e-08
2.10011e-05
1.41977e-08
2.09998e-05
1.57184e-08
2.09984e-05
1.71186e-08
2.09969e-05
1.84225e-08
2.09955e-05
1.93267e-08
2.09942e-05
2.0584e-08
2.0993e-05
2.13891e-08
2.09919e-05
2.22829e-08
2.09909e-05
2.29781e-08
2.09899e-05
2.34984e-08
2.09891e-05
2.38571e-08
2.09883e-05
2.40032e-08
2.09876e-05
2.40594e-08
2.09869e-05
2.39291e-08
2.09863e-05
2.36814e-08
2.09859e-05
2.32332e-08
2.09856e-05
2.26575e-08
2.09854e-05
2.1922e-08
2.09855e-05
2.11039e-08
2.09856e-05
2.0301e-08
2.09858e-05
1.95276e-08
2.09859e-05
1.8777e-08
2.0986e-05
1.8005e-08
2.09861e-05
1.7221e-08
2.09862e-05
1.64314e-08
2.09863e-05
1.56273e-08
2.09865e-05
1.48419e-08
2.09867e-05
1.40634e-08
2.09869e-05
1.32978e-08
2.09871e-05
1.25491e-08
2.09873e-05
1.18225e-08
2.09875e-05
1.1121e-08
2.09877e-05
1.04471e-08
9.78602e-09
2.09879e-05
2.26823e-05
1.04081e-10
2.26813e-05
2.88066e-09
2.26806e-05
5.0223e-09
2.268e-05
7.17331e-09
2.26796e-05
1.04232e-08
2.26792e-05
1.27084e-08
2.26783e-05
1.50505e-08
2.26772e-05
1.68334e-08
2.26759e-05
1.83592e-08
2.26746e-05
1.97984e-08
2.26732e-05
2.0747e-08
2.26718e-05
2.1937e-08
2.26706e-05
2.26342e-08
2.26695e-05
2.33496e-08
2.26685e-05
2.3923e-08
2.26677e-05
2.4331e-08
2.2667e-05
2.46021e-08
2.26663e-05
2.46582e-08
2.26658e-05
2.45979e-08
2.26654e-05
2.43382e-08
2.26651e-05
2.39546e-08
2.26649e-05
2.33833e-08
2.26649e-05
2.26871e-08
2.26649e-05
2.18956e-08
2.2665e-05
2.10824e-08
2.2665e-05
2.02679e-08
2.2665e-05
1.94852e-08
2.26651e-05
1.86863e-08
2.26652e-05
1.78834e-08
2.26654e-05
1.70668e-08
2.26656e-05
1.62448e-08
2.26658e-05
1.54323e-08
2.2666e-05
1.46279e-08
2.26662e-05
1.38369e-08
2.26665e-05
1.30636e-08
2.26667e-05
1.23126e-08
2.26669e-05
1.15865e-08
2.26672e-05
1.0888e-08
2.26674e-05
1.0218e-08
9.56277e-09
2.26676e-05
2.44934e-05
6.34766e-10
2.44925e-05
3.76742e-09
2.44917e-05
5.86584e-09
2.44909e-05
7.98652e-09
2.44902e-05
1.11426e-08
2.44896e-05
1.32928e-08
2.4489e-05
1.56611e-08
2.44882e-05
1.76019e-08
2.44872e-05
1.93762e-08
2.44859e-05
2.10242e-08
2.44846e-05
2.20864e-08
2.44833e-05
2.3233e-08
2.44821e-05
2.38287e-08
2.44812e-05
2.43082e-08
2.44804e-05
2.47257e-08
2.44797e-05
2.50147e-08
2.44791e-05
2.51662e-08
2.44787e-05
2.5102e-08
2.44783e-05
2.49179e-08
2.44781e-05
2.45532e-08
2.44781e-05
2.40147e-08
2.44781e-05
2.33554e-08
2.44782e-05
2.26163e-08
2.44782e-05
2.18231e-08
2.44783e-05
2.10347e-08
2.44783e-05
2.02077e-08
2.44785e-05
1.93741e-08
2.44786e-05
1.85394e-08
2.44788e-05
1.76977e-08
2.4479e-05
1.68566e-08
2.44792e-05
1.60157e-08
2.44795e-05
1.51792e-08
2.44797e-05
1.43622e-08
2.448e-05
1.35728e-08
2.44803e-05
1.27893e-08
2.44806e-05
1.204e-08
2.44808e-05
1.13245e-08
2.44811e-05
1.06332e-08
2.44813e-05
9.9721e-09
9.31266e-09
2.44816e-05
2.64491e-05
1.06082e-09
2.64484e-05
4.53102e-09
2.64475e-05
6.74143e-09
2.64466e-05
8.92948e-09
2.64456e-05
1.213e-08
2.64445e-05
1.43194e-08
2.64435e-05
1.67028e-08
2.64425e-05
1.85879e-08
2.64416e-05
2.02773e-08
2.64408e-05
2.18715e-08
2.64399e-05
2.29133e-08
2.64392e-05
2.39771e-08
2.64384e-05
2.46487e-08
2.64376e-05
2.50432e-08
2.6437e-05
2.53415e-08
2.64366e-05
2.5448e-08
2.64363e-05
2.54524e-08
2.64362e-05
2.52457e-08
2.64361e-05
2.49288e-08
2.64362e-05
2.44775e-08
2.64363e-05
2.39486e-08
2.64363e-05
2.33594e-08
2.64363e-05
2.26164e-08
2.64363e-05
2.1803e-08
2.64364e-05
2.09398e-08
2.64366e-05
2.00405e-08
2.64368e-05
1.91635e-08
2.6437e-05
1.82991e-08
2.64373e-05
1.74298e-08
2.64376e-05
1.65709e-08
2.64379e-05
1.57151e-08
2.64382e-05
1.48776e-08
2.64385e-05
1.40545e-08
2.64388e-05
1.32572e-08
2.64391e-05
1.24823e-08
2.64394e-05
1.17381e-08
2.64397e-05
1.10216e-08
2.644e-05
1.0338e-08
2.64403e-05
9.68472e-09
9.05187e-09
2.64406e-05
2.8561e-05
1.41599e-09
2.85603e-05
5.20513e-09
2.85594e-05
7.58703e-09
2.85585e-05
9.90295e-09
2.85575e-05
1.31098e-08
2.85565e-05
1.52972e-08
2.85555e-05
1.76836e-08
2.85546e-05
1.953e-08
2.85537e-05
2.11243e-08
2.8553e-05
2.265e-08
2.85522e-05
2.3671e-08
2.85516e-05
2.45836e-08
2.8551e-05
2.52522e-08
2.85505e-05
2.55874e-08
2.855e-05
2.58248e-08
2.85496e-05
2.58266e-08
2.85493e-05
2.57407e-08
2.85491e-05
2.54371e-08
2.8549e-05
2.50175e-08
2.8549e-05
2.44561e-08
2.85492e-05
2.37929e-08
2.85495e-05
2.30365e-08
2.85499e-05
2.21908e-08
2.85504e-05
2.13661e-08
2.85508e-05
2.05139e-08
2.85512e-05
1.96842e-08
2.85515e-05
1.88123e-08
2.85519e-05
1.79462e-08
2.85522e-05
1.70671e-08
2.85526e-05
1.62034e-08
2.8553e-05
1.5342e-08
2.85533e-05
1.45058e-08
2.85537e-05
1.3685e-08
2.85541e-05
1.28957e-08
2.85544e-05
1.21298e-08
2.85548e-05
1.1398e-08
2.85551e-05
1.06938e-08
2.85554e-05
1.00245e-08
2.85557e-05
9.38509e-09
8.79546e-09
2.8556e-05
3.08414e-05
1.70249e-09
3.08408e-05
5.79324e-09
3.084e-05
8.39036e-09
3.0839e-05
1.08652e-08
3.08381e-05
1.40774e-08
3.08371e-05
1.62297e-08
3.08362e-05
1.85874e-08
3.08354e-05
2.03788e-08
3.08346e-05
2.18793e-08
3.0834e-05
2.33053e-08
3.08334e-05
2.42776e-08
3.08329e-05
2.50386e-08
3.08325e-05
2.56409e-08
3.08322e-05
2.58732e-08
3.0832e-05
2.60221e-08
3.0832e-05
2.59069e-08
3.0832e-05
2.57176e-08
3.08321e-05
2.53243e-08
3.08323e-05
2.48192e-08
3.08326e-05
2.41875e-08
3.08329e-05
2.34561e-08
3.08333e-05
2.26697e-08
3.08336e-05
2.18192e-08
3.0834e-05
2.09707e-08
3.08345e-05
2.00925e-08
3.08349e-05
1.92354e-08
3.08354e-05
1.83548e-08
3.08358e-05
1.7489e-08
3.08363e-05
1.66053e-08
3.08367e-05
1.57436e-08
3.08372e-05
1.48838e-08
3.08376e-05
1.40558e-08
3.08381e-05
1.32441e-08
3.08385e-05
1.24694e-08
3.08389e-05
1.17296e-08
3.08393e-05
1.10192e-08
3.08397e-05
1.03323e-08
3.084e-05
9.68108e-09
3.08403e-05
9.05877e-09
8.48294e-09
3.08406e-05
3.33039e-05
1.89228e-09
3.33033e-05
6.36105e-09
3.33027e-05
9.08572e-09
3.33017e-05
1.18083e-08
3.33008e-05
1.49785e-08
3.32999e-05
1.70898e-08
3.32992e-05
1.93556e-08
3.32985e-05
2.10978e-08
3.32978e-05
2.25023e-08
3.32973e-05
2.38484e-08
3.32968e-05
2.47869e-08
3.32964e-05
2.54334e-08
3.32961e-05
2.59479e-08
3.32959e-05
2.60717e-08
3.32958e-05
2.61124e-08
3.32958e-05
2.58688e-08
3.3296e-05
2.5537e-08
3.32963e-05
2.5011e-08
3.32968e-05
2.43666e-08
3.32973e-05
2.3623e-08
3.32981e-05
2.27466e-08
3.32988e-05
2.19342e-08
3.32995e-05
2.11169e-08
3.33001e-05
2.03346e-08
3.33007e-05
1.95052e-08
3.33013e-05
1.86894e-08
3.33018e-05
1.78387e-08
3.33023e-05
1.69731e-08
3.33028e-05
1.60838e-08
3.33033e-05
1.52072e-08
3.33039e-05
1.43434e-08
3.33044e-05
1.35292e-08
3.33049e-05
1.27347e-08
3.33054e-05
1.1982e-08
3.33059e-05
1.12535e-08
3.33063e-05
1.05643e-08
3.33068e-05
9.90181e-09
3.33072e-05
9.27635e-09
3.33076e-05
8.67879e-09
8.10648e-09
3.33079e-05
3.5963e-05
2.056e-09
3.59624e-05
6.88886e-09
3.59618e-05
9.7655e-09
3.59609e-05
1.26385e-08
3.59601e-05
1.578e-08
3.59594e-05
1.779e-08
3.59588e-05
1.99983e-08
3.59582e-05
2.16892e-08
3.59577e-05
2.29722e-08
3.59574e-05
2.4176e-08
3.59572e-05
2.50133e-08
3.59571e-05
2.54869e-08
3.59572e-05
2.58378e-08
3.59575e-05
2.5786e-08
3.5958e-05
2.56592e-08
3.59586e-05
2.52631e-08
3.59593e-05
2.48017e-08
3.59601e-05
2.42036e-08
3.59609e-05
2.35404e-08
3.59617e-05
2.28639e-08
3.59622e-05
2.22231e-08
3.59626e-05
2.15116e-08
3.59631e-05
2.07101e-08
3.59635e-05
1.9907e-08
3.5964e-05
1.90209e-08
3.59645e-05
1.81361e-08
3.59652e-05
1.71927e-08
3.59659e-05
1.62785e-08
3.59665e-05
1.54014e-08
3.59671e-05
1.46088e-08
3.59677e-05
1.37945e-08
3.59682e-05
1.30193e-08
3.59687e-05
1.22585e-08
3.59691e-05
1.15378e-08
3.59695e-05
1.0838e-08
3.59699e-05
1.01761e-08
3.59703e-05
9.53849e-09
3.59706e-05
8.93644e-09
3.59709e-05
8.36002e-09
7.82541e-09
3.59712e-05
3.88347e-05
1.80358e-09
3.88333e-05
8.27792e-09
3.88333e-05
9.83203e-09
3.88322e-05
1.36877e-08
3.88321e-05
1.5929e-08
3.88312e-05
1.86322e-08
3.88311e-05
2.01134e-08
3.88304e-05
2.24216e-08
3.88302e-05
2.31227e-08
3.88297e-05
2.46889e-08
3.88296e-05
2.50897e-08
3.88293e-05
2.58229e-08
3.88293e-05
2.58103e-08
3.88292e-05
2.59369e-08
3.88293e-05
2.55201e-08
3.88293e-05
2.52349e-08
3.88296e-05
2.45185e-08
3.88299e-05
2.39534e-08
3.88304e-05
2.30263e-08
3.8831e-05
2.22715e-08