/*--------------------------------*- C++ -*----------------------------------*\
| =========                 |                                                 |
| \\      /  F ield         | OpenFOAM: The Open Source CFD Toolbox           |
|  \\    /   O peration     | Version:  2312                                  |
|   \\  /    A nd           | Website:  www.openfoam.com                      |
|    \\/     M anipulation  |                                                 |
\*---------------------------------------------------------------------------*/
FoamFile
{
    version     2.0;
    format      ascii;
    arch        "LSB;label=32;scalar=64";
    class       volVectorField;
    location    "0.95";
    object      U;
}
// * * * * * * * * * * * * * * * * * * * * * * * * * * * * * * * * * * * * * //

dimensions      [0 1 -1 0 0 0 0];

internalField   nonuniform List<vector> 
5600
(
(0.971772 -0.000840973 0)
(1.02741 0.000727142 0)
(0.974345 -0.000678525 0)
(1.02499 0.000600624 0)
(0.976928 -0.000534643 0)
(1.02253 0.000480129 0)
(0.979245 -0.000427751 0)
(1.02018 0.000377116 0)
(0.98135 -0.000326707 0)
(1.01796 0.000304062 0)
(0.983239 -0.000234969 0)
(1.01584 0.000256003 0)
(0.984908 -0.00014974 0)
(1.01384 0.000230361 0)
(0.986377 -8.34827e-05 0)
(1.01196 0.000214947 0)
(0.987662 -3.20611e-05 0)
(1.01022 0.000214713 0)
(0.988778 7.72206e-06 0)
(1.00861 0.000218184 0)
(0.989716 3.57909e-05 0)
(1.0071 0.000221948 0)
(0.990484 6.79969e-05 0)
(1.00569 0.000237257 0)
(0.991086 0.000115407 0)
(1.00436 0.00026753 0)
(0.991537 0.000171143 0)
(1.00311 0.000305264 0)
(0.991846 0.000228269 0)
(1.00192 0.000347411 0)
(0.992011 0.000293908 0)
(1.00076 0.000420433 0)
(0.992027 0.00042642 0)
(0.999619 0.000616486 0)
(0.991934 0.000719189 0)
(0.998554 0.000976965 0)
(0.991799 0.00115349 0)
(0.997574 0.00150054 0)
(0.99169 0.0018507 0)
(0.997038 0.00242026 0)
(0.987385 -0.00085908 0)
(1.01102 0.000716971 0)
(0.989832 -0.00067473 0)
(1.00914 0.000585587 0)
(0.99201 -0.000516905 0)
(1.00733 0.000459088 0)
(0.99369 -0.000395926 0)
(1.00575 0.000353044 0)
(0.994986 -0.000283085 0)
(1.00441 0.000280601 0)
(0.995976 -0.000180381 0)
(1.00324 0.000238153 0)
(0.996676 -8.6073e-05 0)
(1.00221 0.000220431 0)
(0.997155 -1.58974e-05 0)
(1.00133 0.000216997 0)
(0.997453 3.92704e-05 0)
(1.00056 0.00023021 0)
(0.997611 8.42807e-05 0)
(0.999884 0.000248516 0)
(0.997637 0.000123341 0)
(0.999264 0.000271159 0)
(0.997553 0.000168826 0)
(0.99868 0.000309717 0)
(0.997368 0.000235747 0)
(0.998114 0.000368207 0)
(0.997098 0.00031713 0)
(0.997554 0.000440982 0)
(0.996754 0.000412446 0)
(0.996988 0.000537883 0)
(0.996347 0.000546166 0)
(0.996424 0.000702772 0)
(0.995917 0.000791244 0)
(0.995894 0.00103674 0)
(0.995492 0.0012369 0)
(0.9954 0.00156829 0)
(0.995122 0.00185747 0)
(0.995089 0.00229897 0)
(0.995103 0.00277326 0)
(0.995455 0.00343745 0)
(0.996954 -0.000771314 0)
(1.00198 0.000606958 0)
(0.99766 -0.000577781 0)
(1.00139 0.000475712 0)
(0.99834 -0.000415721 0)
(1.00082 0.000354425 0)
(0.998701 -0.000293574 0)
(1.00034 0.000254753 0)
(0.998876 -0.000185112 0)
(0.999965 0.000188728 0)
(0.998943 -8.63759e-05 0)
(0.999615 0.000157733 0)
(0.998891 3.8489e-06 0)
(0.999278 0.000151681 0)
(0.998761 6.88565e-05 0)
(0.998958 0.000160267 0)
(0.998575 0.000112138 0)
(0.998651 0.000183361 0)
(0.998351 0.000146134 0)
(0.998333 0.000210654 0)
(0.998079 0.000188841 0)
(0.997995 0.000246819 0)
(0.997766 0.00024055 0)
(0.99763 0.000298807 0)
(0.997407 0.000308738 0)
(0.997232 0.000370359 0)
(0.997007 0.0003941 0)
(0.996804 0.000460475 0)
(0.996573 0.000502334 0)
(0.996351 0.000592152 0)
(0.996116 0.000684437 0)
(0.99589 0.000833814 0)
(0.995669 0.000986487 0)
(0.995453 0.00117574 0)
(0.995243 0.00136388 0)
(0.995048 0.00159541 0)
(0.994899 0.00184531 0)
(0.994828 0.00214601 0)
(0.994905 0.00246487 0)
(0.995229 0.0028116 0)
(0.999562 -0.000762989 0)
(0.999839 0.000596421 0)
(0.99944 -0.000558053 0)
(0.99976 0.000463386 0)
(0.99952 -0.000392438 0)
(0.999612 0.000342723 0)
(0.999441 -0.000264244 0)
(0.999451 0.000245281 0)
(0.999303 -0.000151807 0)
(0.999275 0.000182603 0)
(0.999144 -5.07863e-05 0)
(0.999075 0.000159423 0)
(0.998952 4.09275e-05 0)
(0.998848 0.000161563 0)
(0.998723 0.000108083 0)
(0.998601 0.00018093 0)
(0.998474 0.000153185 0)
(0.998344 0.000215162 0)
(0.998211 0.000196391 0)
(0.998064 0.000255075 0)
(0.997914 0.000247976 0)
(0.997751 0.000305691 0)
(0.997587 0.00031484 0)
(0.997405 0.000375945 0)
(0.997221 0.000402263 0)
(0.997021 0.000471534 0)
(0.996819 0.000517271 0)
(0.996603 0.000601519 0)
(0.996392 0.000673934 0)
(0.99618 0.000786363 0)
(0.995979 0.000903692 0)
(0.995776 0.00107038 0)
(0.995579 0.00124347 0)
(0.995382 0.00144748 0)
(0.995207 0.00165508 0)
(0.995062 0.00190202 0)
(0.99498 0.00216889 0)
(0.994988 0.00247805 0)
(0.995146 0.00280332 0)
(0.99554 0.0031506 0)
(0.999968 -0.000695492 0)
(0.999569 0.000523331 0)
(0.999682 -0.000479038 0)
(0.999571 0.000386201 0)
(0.999646 -0.000313445 0)
(0.999493 0.000269158 0)
(0.999502 -0.000184029 0)
(0.999392 0.000176943 0)
(0.999338 -7.39113e-05 0)
(0.999216 0.00012421 0)
(0.99914 2.05716e-05 0)
(0.999025 0.000117999 0)
(0.998935 9.99235e-05 0)
(0.998809 0.000144246 0)
(0.998692 0.000141622 0)
(0.998556 0.000181381 0)
(0.998435 0.000184364 0)
(0.998298 0.000223934 0)
(0.998171 0.000234236 0)
(0.998022 0.000272531 0)
(0.997877 0.000293134 0)
(0.997717 0.000336883 0)
(0.997555 0.000369964 0)
(0.997379 0.000423885 0)
(0.997198 0.000471459 0)
(0.997007 0.000538623 0)
(0.996811 0.000604114 0)
(0.99661 0.000695232 0)
(0.99641 0.000800764 0)
(0.996211 0.000940016 0)
(0.996024 0.00108777 0)
(0.995842 0.0012545 0)
(0.995667 0.00142491 0)
(0.995496 0.00161378 0)
(0.995348 0.00181031 0)
(0.995233 0.00202575 0)
(0.995181 0.00224826 0)
(0.995214 0.00248286 0)
(0.995384 0.00271511 0)
(0.995772 0.00294474 0)
(1 -0.000679515 0)
(0.999565 0.000504237 0)
(0.999711 -0.00044707 0)
(0.999567 0.000364199 0)
(0.999648 -0.000279219 0)
(0.999489 0.000247732 0)
(0.999495 -0.000145436 0)
(0.999406 0.000159333 0)
(0.999355 -2.9844e-05 0)
(0.999227 0.000115651 0)
(0.999146 5.75597e-05 0)
(0.999042 0.000118787 0)
(0.998945 0.000129802 0)
(0.998826 0.000161392 0)
(0.998701 0.00017491 0)
(0.99856 0.000207668 0)
(0.998436 0.000225521 0)
(0.998297 0.000257745 0)
(0.998169 0.000280907 0)
(0.998023 0.000316368 0)
(0.997878 0.00034978 0)
(0.997723 0.000394201 0)
(0.997564 0.000440899 0)
(0.997394 0.000499648 0)
(0.997219 0.000564705 0)
(0.997035 0.000644688 0)
(0.99685 0.00073577 0)
(0.996665 0.000844567 0)
(0.996492 0.000968704 0)
(0.996319 0.00111359 0)
(0.996152 0.00127672 0)
(0.995982 0.00145013 0)
(0.995822 0.00162735 0)
(0.995668 0.00180983 0)
(0.995544 0.00199884 0)
(0.995453 0.0021935 0)
(0.995426 0.00239125 0)
(0.995482 0.00258815 0)
(0.995676 0.00278175 0)
(0.996087 0.00296924 0)
(1 -0.000616141 0)
(0.999579 0.000435189 0)
(0.99972 -0.000369991 0)
(0.99958 0.000295805 0)
(0.999646 -0.000204832 0)
(0.999495 0.000183769 0)
(0.999489 -7.62995e-05 0)
(0.999408 0.00010142 0)
(0.999366 3.64154e-05 0)
(0.999237 8.53661e-05 0)
(0.999154 0.000102235 0)
(0.999063 0.000116137 0)
(0.998961 0.000149315 0)
(0.998846 0.000174328 0)
(0.998722 0.000209416 0)
(0.998574 0.000230662 0)
(0.99845 0.000260623 0)
(0.99831 0.000285346 0)
(0.998183 0.000319831 0)
(0.998039 0.000354186 0)
(0.997893 0.000397911 0)
(0.997739 0.000444947 0)
(0.997581 0.000502057 0)
(0.997415 0.000567275 0)
(0.997248 0.000646012 0)
(0.997074 0.000739003 0)
(0.996906 0.000850695 0)
(0.996732 0.000979511 0)
(0.996572 0.00112665 0)
(0.996412 0.00128238 0)
(0.99627 0.00144744 0)
(0.996119 0.00161519 0)
(0.99598 0.00178873 0)
(0.995844 0.00196347 0)
(0.99574 0.00214223 0)
(0.995665 0.00231898 0)
(0.995653 0.00249315 0)
(0.995715 0.00265688 0)
(0.995913 0.00280837 0)
(0.996325 0.00294135 0)
(1 -0.000588418 0)
(0.999592 0.000401972 0)
(0.999719 -0.000324739 0)
(0.999597 0.000262386 0)
(0.999648 -0.000158869 0)
(0.999512 0.000155631 0)
(0.999495 -3.04532e-05 0)
(0.99941 8.06365e-05 0)
(0.999366 7.66005e-05 0)
(0.999248 8.21694e-05 0)
(0.999157 0.000124308 0)
(0.999075 0.000125846 0)
(0.998974 0.000178397 0)
(0.99886 0.000194682 0)
(0.998745 0.000249172 0)
(0.998596 0.000260199 0)
(0.998476 0.000302948 0)
(0.998341 0.000320216 0)
(0.998212 0.000369151 0)
(0.998072 0.000400021 0)
(0.997924 0.000459967 0)
(0.997772 0.000505437 0)
(0.997615 0.000579456 0)
(0.997452 0.000644156 0)
(0.997291 0.000739827 0)
(0.997124 0.000836309 0)
(0.996969 0.000972554 0)
(0.996814 0.00111547 0)
(0.996677 0.00128979 0)
(0.996532 0.0014586 0)
(0.996398 0.00163812 0)
(0.996256 0.00180255 0)
(0.996131 0.00197516 0)
(0.99601 0.00213477 0)
(0.995921 0.00229642 0)
(0.995857 0.00243771 0)
(0.99585 0.00257032 0)
(0.995911 0.00267599 0)
(0.996096 0.00276948 0)
(0.996484 0.00284464 0)
(1.00001 -0.000526799 0)
(0.999606 0.00033579 0)
(0.999712 -0.000250768 0)
(0.99961 0.000201813 0)
(0.999654 -9.22684e-05 0)
(0.999533 0.000103527 0)
(0.999515 2.68404e-05 0)
(0.999415 4.52241e-05 0)
(0.999364 0.000120697 0)
(0.999257 8.58653e-05 0)
(0.999161 0.000142886 0)
(0.999077 0.000131071 0)
(0.99898 0.000213629 0)
(0.998867 0.000206881 0)
(0.998762 0.000291984 0)
(0.998623 0.000281668 0)
(0.998506 0.000350764 0)
(0.998378 0.000347496 0)
(0.998249 0.000424837 0)
(0.998113 0.000438585 0)
(0.997966 0.000529135 0)
(0.997817 0.000560454 0)
(0.997664 0.000666944 0)
(0.997506 0.000723448 0)
(0.997355 0.000854321 0)
(0.997205 0.000950398 0)
(0.997071 0.00112193 0)
(0.996932 0.00125889 0)
(0.996803 0.00144573 0)
(0.996665 0.00159229 0)
(0.996538 0.00178333 0)
(0.996405 0.001947 0)
(0.996285 0.00215437 0)
(0.996166 0.00233479 0)
(0.996067 0.00253895 0)
(0.995986 0.00269798 0)
(0.995951 0.00285814 0)
(0.995986 0.0029532 0)
(0.99616 0.00299817 0)
(0.99659 0.00288096 0)
(1.00002 -0.000489606 0)
(0.99962 0.00029414 0)
(0.999711 -0.000196886 0)
(0.999618 0.000160846 0)
(0.999663 -4.30088e-05 0)
(0.99955 7.66453e-05 0)
(0.999537 6.90044e-05 0)
(0.999425 3.94099e-05 0)
(0.999374 0.000133041 0)
(0.999266 0.000101406 0)
(0.999174 0.000162698 0)
(0.999076 0.000150058 0)
(0.998987 0.000240053 0)
(0.998872 0.000232454 0)
(0.998778 0.000324511 0)
(0.99865 0.000316518 0)
(0.99854 0.000390347 0)
(0.998413 0.000390289 0)
(0.998289 0.000474878 0)
(0.998151 0.000494209 0)
(0.998014 0.000594719 0)
(0.997868 0.000633034 0)
(0.997727 0.000752911 0)
(0.997579 0.000826174 0)
(0.997446 0.000980731 0)
(0.997309 0.0010932 0)
(0.997188 0.00126562 0)
(0.997056 0.0013908 0)
(0.996938 0.00156569 0)
(0.996816 0.00170419 0)
(0.996715 0.00188949 0)
(0.996617 0.00204547 0)
(0.996535 0.00223758 0)
(0.996447 0.00239439 0)
(0.996362 0.00257149 0)
(0.996279 0.00271046 0)
(0.996208 0.0028573 0)
(0.996114 0.00294591 0)
(0.995934 0.00298598 0)
(0.995519 0.00286526 0)
(1.00002 -0.000430024 0)
(0.999641 0.000232161 0)
(0.99971 -0.000126125 0)
(0.999632 0.000110471 0)
(0.999669 7.69852e-06 0)
(0.999569 4.47287e-05 0)
(0.999554 9.2573e-05 0)
(0.999435 6.89495e-05 0)
(0.999384 0.000130255 0)
(0.999282 0.000124692 0)
(0.999191 0.000171281 0)
(0.999084 0.000182059 0)
(0.998998 0.000252566 0)
(0.998886 0.000271919 0)
(0.998794 0.000342576 0)
(0.998678 0.000364287 0)
(0.998571 0.000417487 0)
(0.998447 0.000447418 0)
(0.998327 0.000514044 0)
(0.99819 0.000564779 0)
(0.99806 0.000653312 0)
(0.997922 0.000726663 0)
(0.997797 0.000841036 0)
(0.997668 0.000949306 0)
(0.997552 0.00109504 0)
(0.997427 0.00122454 0)
(0.997312 0.00137369 0)
(0.997192 0.00150523 0)
(0.997085 0.00165672 0)
(0.996979 0.00179729 0)
(0.996885 0.00194825 0)
(0.996786 0.00207706 0)
(0.996689 0.00220119 0)
(0.996582 0.00230371 0)
(0.996486 0.00240927 0)
(0.996396 0.00250479 0)
(0.996312 0.00259981 0)
(0.996196 0.00267291 0)
(0.996005 0.00273341 0)
(0.99563 0.00277517 0)
(1.00002 -0.000386396 0)
(0.999668 0.000187056 0)
(0.999713 -7.26258e-05 0)
(0.999649 7.5323e-05 0)
(0.999673 4.7207e-05 0)
(0.999587 3.99946e-05 0)
(0.999571 9.23036e-05 0)
(0.99945 9.32093e-05 0)
(0.999396 0.00014376 0)
(0.9993 0.000150095 0)
(0.999211 0.000189277 0)
(0.9991 0.000211316 0)
(0.999016 0.000273793 0)
(0.998906 0.000306182 0)
(0.998816 0.000368911 0)
(0.998706 0.000405247 0)
(0.998604 0.00045545 0)
(0.998482 0.000500473 0)
(0.998368 0.000565428 0)
(0.998236 0.000630906 0)
(0.998116 0.000723034 0)
(0.99799 0.00082168 0)
(0.99788 0.000949662 0)
(0.997764 0.0010754 0)
(0.997658 0.00121572 0)
(0.997542 0.00134653 0)
(0.997435 0.00148832 0)
(0.997326 0.00161801 0)
(0.997229 0.00174677 0)
(0.99713 0.00185957 0)
(0.997033 0.00196891 0)
(0.996928 0.002068 0)
(0.996833 0.00217039 0)
(0.996745 0.00227364 0)
(0.996671 0.00238543 0)
(0.996595 0.00249389 0)
(0.996508 0.00259809 0)
(0.996373 0.00268578 0)
(0.996148 0.00275946 0)
(0.995729 0.00281412 0)
(1.00002 -0.000330215 0)
(0.999697 0.000131347 0)
(0.999719 -8.05989e-06 0)
(0.999668 4.10906e-05 0)
(0.999684 6.87966e-05 0)
(0.9996 5.76515e-05 0)
(0.999586 9.05261e-05 0)
(0.999467 0.000105328 0)
(0.999412 0.000155822 0)
(0.999318 0.000176719 0)
(0.999232 0.000209559 0)
(0.999123 0.000241907 0)
(0.999041 0.000298075 0)
(0.998932 0.000340782 0)
(0.998843 0.000399583 0)
(0.998736 0.000446044 0)
(0.998638 0.000498957 0)
(0.99852 0.000555494 0)
(0.998412 0.000627579 0)
(0.998289 0.000707383 0)
(0.998183 0.000809743 0)
(0.998074 0.000920203 0)
(0.997977 0.00104834 0)
(0.997871 0.00116842 0)
(0.997774 0.0012937 0)
(0.997669 0.00140923 0)
(0.997569 0.00153217 0)
(0.997456 0.00164883 0)
(0.997349 0.00177022 0)
(0.997241 0.00188472 0)
(0.997149 0.00200047 0)
(0.997062 0.00210935 0)
(0.996989 0.00221859 0)
(0.996919 0.00232165 0)
(0.996855 0.0024233 0)
(0.996778 0.0025161 0)
(0.996683 0.00260338 0)
(0.996535 0.00267937 0)
(0.996299 0.00274908 0)
(0.995878 0.00281033 0)
(1.00002 -0.000283465 0)
(0.99973 8.73051e-05 0)
(0.999728 2.89267e-05 0)
(0.999684 3.57141e-05 0)
(0.999698 7.14105e-05 0)
(0.999615 7.99499e-05 0)
(0.999602 0.00010115 0)
(0.999487 0.000123146 0)
(0.999432 0.000165266 0)
(0.999338 0.000198737 0)
(0.999255 0.000231377 0)
(0.999148 0.000273364 0)
(0.99907 0.000324751 0)
(0.998963 0.000376476 0)
(0.998877 0.000432459 0)
(0.998771 0.000488656 0)
(0.998678 0.000545193 0)
(0.998567 0.000614674 0)
(0.998469 0.000696744 0)
(0.998357 0.000795875 0)
(0.998263 0.000907757 0)
(0.998161 0.00102041 0)
(0.99807 0.00113672 0)
(0.997967 0.00124863 0)
(0.997871 0.00136466 0)
(0.99777 0.00147611 0)
(0.997679 0.00158976 0)
(0.997589 0.00169855 0)
(0.997509 0.00180956 0)
(0.997425 0.00191838 0)
(0.997342 0.00202842 0)
(0.99725 0.00213498 0)
(0.997169 0.00223948 0)
(0.997092 0.00233863 0)
(0.997026 0.0024337 0)
(0.996949 0.0025221 0)
(0.996855 0.00260535 0)
(0.996709 0.00268208 0)
(0.996475 0.00275415 0)
(0.996058 0.00282084 0)
(1.00002 -0.000234372 0)
(0.999762 4.55489e-05 0)
(0.999742 4.79696e-05 0)
(0.999702 4.92249e-05 0)
(0.999716 8.29534e-05 0)
(0.999632 9.79239e-05 0)
(0.999617 0.000116553 0)
(0.999507 0.000141792 0)
(0.999453 0.000177762 0)
(0.999361 0.000217612 0)
(0.999281 0.000255625 0)
(0.999178 0.00030331 0)
(0.999103 0.000355838 0)
(0.998997 0.000412559 0)
(0.998915 0.00047128 0)
(0.998811 0.000534004 0)
(0.998724 0.000599393 0)
(0.998622 0.000680436 0)
(0.998537 0.000774234 0)
(0.998436 0.0008788 0)
(0.99835 0.000990687 0)
(0.998253 0.00110012 0)
(0.998169 0.00121652 0)
(0.998076 0.00133159 0)
(0.997994 0.00145314 0)
(0.997903 0.00156768 0)
(0.997816 0.00167886 0)
(0.997718 0.00177754 0)
(0.997628 0.00187036 0)
(0.997539 0.00195458 0)
(0.997465 0.00203976 0)
(0.997395 0.00212714 0)
(0.997336 0.00222109 0)
(0.997276 0.00231553 0)
(0.997219 0.00240932 0)
(0.997146 0.00249736 0)
(0.997053 0.00258045 0)
(0.996907 0.00265649 0)
(0.996672 0.00272754 0)
(0.996256 0.00279258 0)
(1.00002 -0.000189311 0)
(0.999796 9.58885e-06 0)
(0.999762 6.32003e-05 0)
(0.999718 6.48133e-05 0)
(0.999734 9.11567e-05 0)
(0.99965 0.000105832 0)
(0.999635 0.000127202 0)
(0.999529 0.000159559 0)
(0.999477 0.000197541 0)
(0.999387 0.000242445 0)
(0.99931 0.000283679 0)
(0.999209 0.000335715 0)
(0.999139 0.000389415 0)
(0.999036 0.000451148 0)
(0.998958 0.000513486 0)
(0.998858 0.000584746 0)
(0.998781 0.00066249 0)
(0.998689 0.000756026 0)
(0.998613 0.000855654 0)
(0.998519 0.000956818 0)
(0.99844 0.00106007 0)
(0.998353 0.00116035 0)
(0.99828 0.00126492 0)
(0.998195 0.00136685 0)
(0.998115 0.00147249 0)
(0.99802 0.00157505 0)
(0.99793 0.00168186 0)
(0.997837 0.00178869 0)
(0.997758 0.00189898 0)
(0.997682 0.00200379 0)
(0.997622 0.00210501 0)
(0.997565 0.00219914 0)
(0.997517 0.00229065 0)
(0.997466 0.00237727 0)
(0.997414 0.00246144 0)
(0.997344 0.00254027 0)
(0.997251 0.00261531 0)
(0.997104 0.00268445 0)
(0.99687 0.00274942 0)
(0.996453 0.00280896 0)
(1.00002 -0.000149223 0)
(0.999828 -1.60772e-05 0)
(0.999786 6.98803e-05 0)
(0.999737 7.95509e-05 0)
(0.999752 0.000104981 0)
(0.99967 0.000120902 0)
(0.999654 0.000144631 0)
(0.999553 0.000179549 0)
(0.999502 0.000219093 0)
(0.999414 0.000265424 0)
(0.999341 0.000311314 0)
(0.999245 0.000367742 0)
(0.999179 0.000425993 0)
(0.99908 0.000494049 0)
(0.999008 0.000563147 0)
(0.998914 0.000644364 0)
(0.998847 0.000732483 0)
(0.998762 0.000827118 0)
(0.998692 0.000924127 0)
(0.998602 0.00102283 0)
(0.998526 0.00112887 0)
(0.998442 0.00123465 0)
(0.998372 0.00134362 0)
(0.998294 0.00144501 0)
(0.998228 0.00154422 0)
(0.998156 0.00163818 0)
(0.998094 0.00173612 0)
(0.998021 0.00183321 0)
(0.997949 0.00193303 0)
(0.997869 0.00202902 0)
(0.997801 0.00212353 0)
(0.997739 0.00221226 0)
(0.997691 0.00229806 0)
(0.997643 0.00237833 0)
(0.997596 0.00245557 0)
(0.997531 0.00252768 0)
(0.997441 0.00259644 0)
(0.997297 0.00266015 0)
(0.997064 0.00272025 0)
(0.996648 0.00277561 0)
(1.00002 -0.000112508 0)
(0.99986 -3.75393e-05 0)
(0.999814 7.45002e-05 0)
(0.999756 9.54901e-05 0)
(0.999771 0.000120701 0)
(0.99969 0.000135263 0)
(0.999675 0.000160461 0)
(0.999578 0.000197689 0)
(0.999529 0.00023988 0)
(0.999444 0.000289974 0)
(0.999376 0.000339695 0)
(0.999283 0.000399545 0)
(0.999223 0.000462004 0)
(0.999129 0.000540753 0)
(0.999065 0.000620505 0)
(0.998978 0.000709764 0)
(0.998918 0.000798406 0)
(0.998838 0.00088784 0)
(0.998776 0.000980146 0)
(0.998698 0.00107428 0)
(0.998637 0.0011753 0)
(0.998566 0.00127646 0)
(0.998503 0.00138301 0)
(0.998424 0.00148733 0)
(0.99835 0.00159412 0)
(0.998269 0.00169502 0)
(0.9982 0.00179379 0)
(0.998128 0.00188333 0)
(0.998068 0.0019697 0)
(0.998009 0.0020516 0)
(0.997961 0.00213505 0)
(0.997914 0.00221626 0)
(0.997875 0.00229726 0)
(0.997832 0.00237376 0)
(0.997788 0.00244757 0)
(0.997725 0.00251588 0)
(0.997637 0.00258073 0)
(0.997494 0.00264036 0)
(0.997262 0.0026966 0)
(0.996846 0.00274822 0)
(1.00002 -8.18461e-05 0)
(0.999888 -3.95457e-05 0)
(0.999848 6.66726e-05 0)
(0.999778 0.000103983 0)
(0.99979 0.000136318 0)
(0.99971 0.000153211 0)
(0.999696 0.00017936 0)
(0.999605 0.000216875 0)
(0.999558 0.000260268 0)
(0.999477 0.000314678 0)
(0.999413 0.000372681 0)
(0.999325 0.000442967 0)
(0.999275 0.0005128 0)
(0.999188 0.000597589 0)
(0.999131 0.000680523 0)
(0.999047 0.000767291 0)
(0.99899 0.000853033 0)
(0.998915 0.000940963 0)
(0.998858 0.00103283 0)
(0.998784 0.00112529 0)
(0.998727 0.00122197 0)
(0.99866 0.00131717 0)
(0.998609 0.00141779 0)
(0.998548 0.00151926 0)
(0.998498 0.00162718 0)
(0.998436 0.00173081 0)
(0.998378 0.00183224 0)
(0.998308 0.00192398 0)
(0.998244 0.00201181 0)
(0.99818 0.00209251 0)
(0.998132 0.00217193 0)
(0.998089 0.00224703 0)
(0.998057 0.00232128 0)
(0.998019 0.00239121 0)
(0.997979 0.00245884 0)
(0.997918 0.00252152 0)
(0.997832 0.00258104 0)
(0.99769 0.00263576 0)
(0.997459 0.00268728 0)
(0.997043 0.00273459 0)
(1.00002 -5.95065e-05 0)
(0.999912 -2.20696e-05 0)
(0.999877 5.00632e-05 0)
(0.9998 0.000106288 0)
(0.999808 0.000152148 0)
(0.999729 0.000173958 0)
(0.999715 0.000201977 0)
(0.999629 0.000241984 0)
(0.999586 0.000287647 0)
(0.999512 0.000346067 0)
(0.999455 0.00040985 0)
(0.999372 0.000488252 0)
(0.999328 0.00056038 0)
(0.999245 0.000645025 0)
(0.999192 0.000724506 0)
(0.999113 0.000809583 0)
(0.999064 0.000896832 0)
(0.998996 0.000988362 0)
(0.998949 0.00108387 0)
(0.998886 0.0011799 0)
(0.998841 0.00128024 0)
(0.998787 0.00137868 0)
(0.998747 0.00147989 0)
(0.998692 0.0015766 0)
(0.99864 0.00167397 0)
(0.99857 0.00176451 0)
(0.998504 0.00185319 0)
(0.998433 0.00193461 0)
(0.998378 0.00201474 0)
(0.998327 0.00209017 0)
(0.998292 0.00216533 0)
(0.998258 0.0022366 0)
(0.998233 0.00230654 0)
(0.998201 0.00237195 0)
(0.998164 0.00243476 0)
(0.998105 0.00249279 0)
(0.99802 0.0025477 0)
(0.99788 0.00259818 0)
(0.997649 0.0026456 0)
(0.997234 0.00268916 0)
(1.00002 -3.88925e-05 0)
(0.999927 -9.72869e-06 0)
(0.999905 4.39482e-05 0)
(0.999826 0.000105395 0)
(0.999827 0.000165196 0)
(0.999747 0.00019518 0)
(0.999733 0.000229176 0)
(0.999654 0.000273567 0)
(0.999614 0.00032373 0)
(0.999546 0.000382989 0)
(0.999497 0.000446243 0)
(0.999418 0.000523865 0)
(0.999381 0.000595483 0)
(0.999304 0.000681794 0)
(0.999257 0.000765706 0)
(0.999184 0.000854616 0)
(0.999143 0.000945482 0)
(0.999083 0.00103893 0)
(0.999043 0.00113604 0)
(0.998984 0.00123166 0)
(0.998944 0.00133005 0)
(0.998892 0.00142415 0)
(0.998856 0.00151898 0)
(0.998808 0.00160711 0)
(0.998769 0.00169404 0)
(0.998716 0.0017742 0)
(0.998665 0.00185442 0)
(0.998602 0.00193098 0)
(0.998549 0.00200863 0)
(0.998497 0.00208338 0)
(0.998464 0.0021576 0)
(0.998434 0.00222774 0)
(0.998413 0.00229529 0)
(0.998383 0.00235801 0)
(0.998349 0.00241722 0)
(0.998292 0.0024718 0)
(0.998208 0.0025229 0)
(0.998068 0.00257002 0)
(0.997838 0.00261397 0)
(0.997423 0.00265456 0)
(1.00002 -2.41036e-05 0)
(0.99994 4.91635e-06 0)
(0.999927 5.23656e-05 0)
(0.999849 0.000101311 0)
(0.999848 0.000171121 0)
(0.999765 0.000212522 0)
(0.999752 0.000256031 0)
(0.999678 0.000303807 0)
(0.999642 0.000357974 0)
(0.999579 0.000418658 0)
(0.999538 0.000480772 0)
(0.999465 0.000560786 0)
(0.999436 0.000634137 0)
(0.999366 0.000722881 0)
(0.999325 0.000809619 0)
(0.99926 0.000900661 0)
(0.999225 0.000992277 0)
(0.999173 0.00108528 0)
(0.999141 0.0011816 0)
(0.999092 0.00127644 0)
(0.999062 0.00137357 0)
(0.999019 0.00146681 0)
(0.998989 0.00155994 0)
(0.998941 0.00164617 0)
(0.998895 0.00172836 0)
(0.998833 0.00180111 0)
(0.99878 0.00186949 0)
(0.998727 0.00193441 0)
(0.998691 0.00200209 0)
(0.998657 0.00207055 0)
(0.998638 0.00214016 0)
(0.998615 0.00220708 0)
(0.998597 0.0022711 0)
(0.998568 0.00233034 0)
(0.998534 0.00238561 0)
(0.998476 0.00243641 0)
(0.998393 0.00248366 0)
(0.998253 0.00252726 0)
(0.998023 0.0025678 0)
(0.997608 0.00260528 0)
(1.00002 -1.1099e-05 0)
(0.99995 1.82762e-05 0)
(0.999946 6.06566e-05 0)
(0.999871 0.000102852 0)
(0.99987 0.000174429 0)
(0.999786 0.000226981 0)
(0.99977 0.000281345 0)
(0.999703 0.000333827 0)
(0.99967 0.000392504 0)
(0.999611 0.000455918 0)
(0.999579 0.000518589 0)
(0.999513 0.000598354 0)
(0.999492 0.000673415 0)
(0.999431 0.00076103 0)
(0.999397 0.000850196 0)
(0.999337 0.000941076 0)
(0.99931 0.00103411 0)
(0.999265 0.00112565 0)
(0.999241 0.00122098 0)
(0.999198 0.00131273 0)
(0.999171 0.00140511 0)
(0.999131 0.0014907 0)
(0.999104 0.00157375 0)
(0.999059 0.00164926 0)
(0.999018 0.00172213 0)
(0.998961 0.00179106 0)
(0.998916 0.00186055 0)
(0.998872 0.00192908 0)
(0.998847 0.00199825 0)
(0.998823 0.00206572 0)
(0.998811 0.00213152 0)
(0.998793 0.00219381 0)
(0.998778 0.00225259 0)
(0.998749 0.00230707 0)
(0.998715 0.00235764 0)
(0.998657 0.00240428 0)
(0.998574 0.00244747 0)
(0.998434 0.00248745 0)
(0.998204 0.0025245 0)
(0.99779 0.00255885 0)
(1.00002 -2.52422e-06 0)
(0.999957 3.41474e-05 0)
(0.999961 6.99626e-05 0)
(0.999888 0.000111353 0)
(0.999891 0.000178288 0)
(0.999809 0.000235754 0)
(0.999792 0.000300861 0)
(0.999728 0.000362838 0)
(0.999699 0.000426467 0)
(0.999645 0.000495483 0)
(0.999621 0.000559093 0)
(0.999562 0.000639501 0)
(0.999548 0.000713518 0)
(0.999497 0.000798523 0)
(0.999471 0.000886339 0)
(0.999418 0.000976869 0)
(0.999398 0.00106903 0)
(0.99936 0.00115974 0)
(0.999344 0.00125225 0)
(0.999306 0.00134181 0)
(0.999285 0.00142988 0)
(0.999247 0.00151151 0)
(0.99922 0.00158791 0)
(0.999174 0.00165723 0)
(0.999135 0.0017234 0)
(0.999086 0.00178814 0)
(0.999053 0.00185441 0)
(0.999021 0.00192105 0)
(0.999006 0.00198735 0)
(0.998989 0.00205135 0)
(0.998982 0.0021124 0)
(0.998966 0.00216965 0)
(0.998952 0.0022231 0)
(0.998924 0.00227263 0)
(0.99889 0.00231854 0)
(0.998831 0.002361 0)
(0.998748 0.00240034 0)
(0.998608 0.00243679 0)
(0.998379 0.00247059 0)
(0.997964 0.0025019 0)
(1.00002 5.45702e-06 0)
(0.999962 4.6849e-05 0)
(0.999972 8.20633e-05 0)
(0.999903 0.000122742 0)
(0.999909 0.0001882 0)
(0.999833 0.000244474 0)
(0.999817 0.000313048 0)
(0.999758 0.000379478 0)
(0.999731 0.000450812 0)
(0.99968 0.00052728 0)
(0.999663 0.000598416 0)
(0.999611 0.000681645 0)
(0.999603 0.000757549 0)
(0.999561 0.000837367 0)
(0.999545 0.00092238 0)
(0.9995 0.00100919 0)
(0.999487 0.00109961 0)
(0.999456 0.00118772 0)
(0.999447 0.00127758 0)
(0.999413 0.00136347 0)
(0.999394 0.00144642 0)
(0.999353 0.00152148 0)
(0.999325 0.00159069 0)
(0.999281 0.00165504 0)
(0.999251 0.00171863 0)
(0.999213 0.00178253 0)
(0.999194 0.00184703 0)
(0.999171 0.00191094 0)
(0.999164 0.00197292 0)
(0.999152 0.00203213 0)
(0.999148 0.00208783 0)
(0.999133 0.00214005 0)
(0.99912 0.00218853 0)
(0.999091 0.0022337 0)
(0.999057 0.00227545 0)
(0.998999 0.00231429 0)
(0.998916 0.00235019 0)
(0.998777 0.00238361 0)
(0.998548 0.00241449 0)
(0.998133 0.00244322 0)
(1.00002 1.10428e-05 0)
(0.999966 5.84721e-05 0)
(0.999981 9.51148e-05 0)
(0.999915 0.000137551 0)
(0.999926 0.000203994 0)
(0.999853 0.000261092 0)
(0.999841 0.000329754 0)
(0.999788 0.000398068 0)
(0.999769 0.000471803 0)
(0.999722 0.000553384 0)
(0.999711 0.00062773 0)
(0.999664 0.00071228 0)
(0.999658 0.00079013 0)
(0.999624 0.000868023 0)
(0.999617 0.000949298 0)
(0.999582 0.00103165 0)
(0.999577 0.00111591 0)
(0.999554 0.00119754 0)
(0.99955 0.00127886 0)
(0.999521 0.00135761 0)
(0.999501 0.00143422 0)
(0.999459 0.00150716 0)
(0.999432 0.00157619 0)
(0.999394 0.00164231 0)
(0.999374 0.00170596 0)
(0.999346 0.00176867 0)
(0.999336 0.00182939 0)
(0.99932 0.00188862 0)
(0.999318 0.00194468 0)
(0.999309 0.00199821 0)
(0.999307 0.00204806 0)
(0.999293 0.00209517 0)
(0.999281 0.00213876 0)
(0.999253 0.00217973 0)
(0.99922 0.00221749 0)
(0.999162 0.00225283 0)
(0.999079 0.00228534 0)
(0.99894 0.00231571 0)
(0.998711 0.00234363 0)
(0.998297 0.00236967 0)
(1.00002 1.64483e-05 0)
(0.99997 6.82677e-05 0)
(0.999989 0.000108454 0)
(0.999927 0.00015335 0)
(0.999942 0.000221644 0)
(0.999875 0.000280992 0)
(0.999866 0.000352921 0)
(0.999819 0.000422553 0)
(0.999806 0.000495613 0)
(0.999763 0.000575149 0)
(0.999758 0.000649059 0)
(0.999717 0.000729834 0)
(0.999715 0.000810823 0)
(0.999688 0.000889052 0)
(0.999688 0.00097153 0)
(0.99966 0.00105212 0)
(0.99966 0.00113547 0)
(0.99964 0.00121432 0)
(0.999642 0.00129261 0)
(0.999619 0.00136736 0)
(0.999608 0.0014404 0)
(0.999574 0.00151064 0)
(0.999553 0.00157749 0)
(0.999517 0.00164171 0)
(0.999501 0.00170261 0)
(0.999477 0.00176215 0)
(0.999472 0.00181864 0)
(0.99946 0.0018736 0)
(0.999462 0.00192484 0)
(0.999455 0.00197397 0)
(0.999455 0.00201922 0)
(0.999443 0.00206232 0)
(0.999433 0.00210188 0)
(0.999406 0.00213946 0)
(0.999373 0.00217385 0)
(0.999316 0.00220638 0)
(0.999233 0.00223605 0)
(0.999094 0.00226401 0)
(0.998865 0.00228946 0)
(0.99845 0.00231338 0)
(1.00002 2.00064e-05 0)
(0.999973 7.67922e-05 0)
(0.999996 0.000120399 0)
(0.999937 0.000169178 0)
(0.999956 0.000238953 0)
(0.999896 0.000299501 0)
(0.999891 0.000371751 0)
(0.999849 0.000441688 0)
(0.999843 0.000513525 0)
(0.999804 0.000592494 0)
(0.999804 0.000666544 0)
(0.999772 0.000744359 0)
(0.999777 0.000823399 0)
(0.999757 0.00089825 0)
(0.999764 0.000975515 0)
(0.999746 0.00104959 0)
(0.999753 0.00112572 0)
(0.99974 0.0011982 0)
(0.999746 0.00126967 0)
(0.999727 0.00133835 0)
(0.999717 0.00140415 0)
(0.999683 0.00146752 0)
(0.999664 0.00152687 0)
(0.999633 0.00158579 0)
(0.999624 0.00164185 0)
(0.999607 0.00169826 0)
(0.999608 0.00175122 0)
(0.9996 0.00180337 0)
(0.999605 0.00185105 0)
(0.9996 0.00189703 0)
(0.999601 0.00193851 0)
(0.999591 0.00197831 0)
(0.999581 0.00201426 0)
(0.999556 0.00204878 0)
(0.999524 0.00208003 0)
(0.999467 0.00210998 0)
(0.999385 0.0021371 0)
(0.999246 0.00216301 0)
(0.999017 0.00218646 0)
(0.998602 0.00220878 0)
(1.00002 2.43057e-05 0)
(0.999976 8.48194e-05 0)
(1 0.000132023 0)
(0.999948 0.000183738 0)
(0.999971 0.000254811 0)
(0.999918 0.00031523 0)
(0.999916 0.000388652 0)
(0.99988 0.000458717 0)
(0.99988 0.000531351 0)
(0.999846 0.000609931 0)
(0.999851 0.000686965 0)
(0.999825 0.000763859 0)
(0.999832 0.000845379 0)
(0.999816 0.000920999 0)
(0.999827 0.00100114 0)
(0.999813 0.00107597 0)
(0.999825 0.0011529 0)
(0.999816 0.00122428 0)
(0.999827 0.00129293 0)
(0.999813 0.00135655 0)
(0.99981 0.00141553 0)
(0.999783 0.00147292 0)
(0.999771 0.00152773 0)
(0.999748 0.00158376 0)
(0.999746 0.00163691 0)
(0.999736 0.00169053 0)
(0.999742 0.00173981 0)
(0.999737 0.00178832 0)
(0.999744 0.00183185 0)
(0.999739 0.00187411 0)
(0.999741 0.00191167 0)
(0.99973 0.00194795 0)
(0.999722 0.00198013 0)
(0.999697 0.00201114 0)
(0.999666 0.00203863 0)
(0.999611 0.00206504 0)
(0.99953 0.00208845 0)
(0.999392 0.00211086 0)
(0.999164 0.00213073 0)
(0.99875 0.00214971 0)
(1.00002 2.41276e-05 0)
(0.999977 9.30332e-05 0)
(1.00001 0.00014237 0)
(0.999956 0.000201293 0)
(0.999983 0.00027127 0)
(0.999938 0.000331877 0)
(0.999941 0.000402197 0)
(0.999909 0.00047182 0)
(0.999917 0.000539737 0)
(0.999891 0.000615185 0)
(0.999901 0.000687006 0)
(0.999884 0.000757273 0)
(0.999901 0.000828994 0)
(0.999895 0.000894274 0)
(0.999915 0.000960833 0)
(0.99991 0.00102197 0)
(0.999927 0.00108306 0)
(0.99992 0.00114102 0)
(0.999929 0.00119722 0)
(0.999911 0.00125411 0)
(0.999905 0.00131 0)
(0.999881 0.00137012 0)
(0.999877 0.00142898 0)
(0.999863 0.00149014 0)
(0.999868 0.00154497 0)
(0.999863 0.00159782 0)
(0.999871 0.00164272 0)
(0.999868 0.00168622 0)
(0.999875 0.00172416 0)
(0.999871 0.00176242 0)
(0.999872 0.00179701 0)
(0.999861 0.00183237 0)
(0.999851 0.00186472 0)
(0.999825 0.00189744 0)
(0.999792 0.00192727 0)