/*--------------------------------*- C++ -*----------------------------------*\
| =========                 |                                                 |
| \\      /  F ield         | OpenFOAM: The Open Source CFD Toolbox           |
|  \\    /   O peration     | Version:  2312                                  |
|   \\  /    A nd           | Website:  www.openfoam.com                      |
|    \\/     M anipulation  |                                                 |
\*---------------------------------------------------------------------------*/
FoamFile
{
    version     2.0;
    format      ascii;
    arch        "LSB;label=32;scalar=64";
    class       volScalarField;
    location    "0.7";
    object      p;
}
// * * * * * * * * * * * * * * * * * * * * * * * * * * * * * * * * * * * * * //

dimensions      [0 2 -2 0 0 0 0];

internalField   nonuniform List<scalar> 
5600
(
-1.55597e-09
0.000472964
0.000306232
0.000442399
0.00036618
0.000527947
0.000507206
0.000646776
0.000668603
0.000806725
0.000861224
0.000988501
0.00107477
0.00120388
0.00130964
0.00143963
0.00156569
0.0017105
0.0018537
0.00200102
0.00215712
0.00232898
0.00250899
0.00269902
0.00289246
0.00309852
0.00331076
0.00353576
0.00376726
0.004013
0.00426949
0.00454434
0.00483262
0.00513198
0.00543047
0.00571856
0.00600313
0.00628204
0.00649224
0.00645964
2.64374e-06
0.000469967
0.000308074
0.000439618
0.000368763
0.000524369
0.000509925
0.000642576
0.000671315
0.000802013
0.000863288
0.000983611
0.00107564
0.00119913
0.00130916
0.00143488
0.00156296
0.00170453
0.00184867
0.00199677
0.00215191
0.00232265
0.00250052
0.00268715
0.00287903
0.00308192
0.00329335
0.00351571
0.00374626
0.00398606
0.00423107
0.00447614
0.00471457
0.00494771
0.00517812
0.00539644
0.00557584
0.00567299
0.00561645
0.0052827
5.02421e-06
0.000468282
0.000309054
0.000438457
0.000369819
0.000522662
0.000510763
0.000640666
0.00067179
0.000800047
0.000863436
0.000981782
0.00107522
0.0011975
0.00130773
0.00143319
0.00156079
0.00170206
0.00184568
0.00199259
0.00214724
0.00231719
0.00249345
0.00267885
0.00286884
0.00307003
0.00327859
0.00349671
0.00371975
0.0039485
0.00417856
0.004405
0.00462266
0.00483521
0.00504347
0.00523615
0.00538548
0.00545427
0.0053808
0.00505816
9.0377e-06
0.000464062
0.000311401
0.000434718
0.000372901
0.000517806
0.000514118
0.000635322
0.000675084
0.000794164
0.000865695
0.000975695
0.00107596
0.00119156
0.00130672
0.00142785
0.00155689
0.00169682
0.00183954
0.00198541
0.00213945
0.00230656
0.00248157
0.00266322
0.00285078
0.00304769
0.00325291
0.00346552
0.00368013
0.00389024
0.0040919
0.00428838
0.00448273
0.00467229
0.00484619
0.00498676
0.00506866
0.00505772
0.0049014
0.0045064
1.26582e-05
0.000460237
0.000313354
0.000432147
0.000375064
0.000514224
0.00051574
0.000631368
0.000675991
0.000790617
0.000865995
0.000972409
0.00107493
0.00118828
0.00130349
0.00142459
0.00155225
0.00169082
0.00183278
0.00197738
0.0021298
0.00229462
0.00246705
0.00264542
0.00282911
0.00302056
0.00321795
0.00341914
0.00361967
0.00381519
0.00400008
0.00417552
0.00434713
0.00451256
0.00465897
0.00476854
0.00481919
0.00478259
0.00461278
0.00422263
1.76494e-05
0.000454109
0.000316809
0.000427136
0.000379147
0.00050774
0.000520005
0.000624686
0.000679335
0.000783577
0.000866935
0.000966425
0.00107274
0.00118534
0.00129915
0.00141852
0.00154561
0.00168274
0.00182371
0.00196632
0.00211692
0.00227864
0.00244773
0.00262156
0.0027998
0.00298416
0.00317278
0.00336104
0.00354185
0.00371298
0.00387849
0.00404167
0.00420047
0.00434781
0.00447182
0.0045571
0.00458344
0.0045227
0.00432935
0.00391691
2.25755e-05
0.00044771
0.000320006
0.000422993
0.000382452
0.000502021
0.000522046
0.000619053
0.000680239
0.000779153
0.000866074
0.00096332
0.00106916
0.00118088
0.0012935
0.00141172
0.00153784
0.00167345
0.00181263
0.00195298
0.00210095
0.00225905
0.00242362
0.00259166
0.00276226
0.00293636
0.00311119
0.00328297
0.00344631
0.00360089
0.00375241
0.00390303
0.00404792
0.00417892
0.00428555
0.00435492
0.00436909
0.00430152
0.00410615
0.00369277
2.88925e-05
0.000438851
0.000324831
0.000416452
0.00038775
0.000493776
0.000527024
0.000611104
0.000681548
0.000773372
0.000862974
0.000960601
0.00106417
0.00117472
0.00128648
0.00140362
0.00152806
0.00166195
0.00179874
0.00193637
0.0020809
0.00223491
0.00239357
0.00255402
0.00271404
0.00287492
0.00303325
0.00318477
0.00333068
0.00347503
0.00361797
0.00375785
0.00388929
0.00400619
0.00409957
0.00415912
0.0041691
0.0041053
0.00392342
0.00353544
3.54625e-05
0.000429071
0.000329521
0.000410595
0.000391859
0.00048592
0.000528221
0.000604946
0.000681248
0.000770422
0.000859083
0.00095577
0.00105842
0.00116764
0.00127837
0.00139362
0.00151639
0.00164779
0.00178215
0.00191597
0.00205635
0.00220536
0.00235767
0.00250893
0.00265482
0.00279443
0.00293093
0.00306837
0.00320515
0.00333985
0.00347104
0.00359883
0.00372184
0.00383777
0.00394058
0.00402016
0.00405831
0.00402331
0.00385346
0.00342517
4.3473e-05
0.000416661
0.00033559
0.000402751
0.000398129
0.000476307
0.000532353
0.000597036
0.000677129
0.000767401
0.000854885
0.000949379
0.00105184
0.00115874
0.0012688
0.00138113
0.00150255
0.00163041
0.00176234
0.00189115
0.00202632
0.00216813
0.00231075
0.00244781
0.00257547
0.00270004
0.00282649
0.00295433
0.00307861
0.00319418
0.00329776
0.00338948
0.00347353
0.00355752
0.00364511
0.00372708
0.00380121
0.0038935
0.0040753
0.00448649
5.20422e-05
0.000402648
0.000341777
0.000395326
0.000401946
0.000467428
0.00053163
0.00059458
0.000673159
0.000762564
0.000848778
0.000942026
0.00104354
0.00114857
0.00125702
0.00136666
0.00148568
0.00160997
0.00173798
0.00186155
0.00198947
0.0021221
0.0022501
0.00236952
0.00248462
0.00260161
0.00271995
0.00283529
0.00294347
0.00304318
0.00313668
0.00322928
0.00332729
0.00343046
0.00352924
0.00361816
0.00370559
0.00381843
0.00401013
0.00438182
6.20967e-05
0.000385887
0.000348202
0.000387807
0.000407371
0.000460041
0.000525573
0.000590539
0.000669323
0.000757101
0.000841341
0.000933435
0.00103324
0.0011367
0.00124272
0.00134963
0.0014653
0.00158589
0.00170811
0.00182438
0.00194158
0.00206152
0.00217574
0.00228417
0.00239141
0.00250091
0.00261006
0.00271465
0.00281251
0.00290598
0.00300102
0.0031001
0.00319678
0.00328417
0.00336133
0.00343562
0.00352376
0.00365491
0.00387955
0.00429383
7.28283e-05
0.000367511
0.000354612
0.000379931
0.000407578
0.000456902
0.000519879
0.000584881
0.000663739
0.000751119
0.000833126
0.000923328
0.00102107
0.00112242
0.00122579
0.00132934
0.00144101
0.00155698
0.00167191
0.00177819
0.00188158
0.00198863
0.00209468
0.00219554
0.00229196
0.00238774
0.0024859
0.00258931
0.00269683
0.00280179
0.00289852
0.00298456
0.00306033
0.00312856
0.0031942
0.00326685
0.00336242
0.00350606
0.00374203
0.00415838
8.50531e-05
0.000345763
0.000359608
0.000377034
0.00040528
0.000453099
0.000514233
0.000577247
0.00065539
0.000743485
0.000823329
0.000911418
0.00100684
0.0011055
0.00120586
0.00130523
0.00141176
0.0015208
0.0016251
0.00171863
0.00181243
0.00191317
0.00201451
0.00211114
0.00220409
0.00229649
0.00238774
0.0024758
0.00255954
0.00264196
0.002728
0.00281593
0.00289768
0.00296936
0.00303544
0.00310729
0.00320185
0.00334457
0.003579
0.00399194
9.77867e-05
0.000325099
0.000361038
0.000373205
0.000400359
0.000448098
0.00050911
0.000570731
0.000646817
0.000733749
0.000811216
0.000897096
0.000990174
0.00108555
0.00118216
0.00127631
0.00137597
0.00147514
0.00156784
0.00165318
0.00174078
0.00183482
0.0019277
0.00201359
0.00209403
0.00217592
0.0022638
0.00235869
0.00245395
0.00254234
0.00262008
0.00268735
0.00274647
0.00280172
0.00285915
0.00292776
0.00302164
0.00316429
0.00339848
0.0038116
0.000111493
0.000303886
0.000357214
0.00037091
0.000396722
0.000443113
0.000503038
0.000562599
0.00063628
0.00072192
0.000796698
0.000879865
0.000970554
0.00106179
0.00115355
0.00124086
0.00133136
0.00142024
0.00150537
0.00158533
0.00166587
0.00175047
0.00183324
0.0019108
0.00198661
0.00206913
0.0021603
0.00225443
0.00234208
0.00241753
0.00247976
0.0025318
0.00257819
0.00262436
0.00267662
0.00274339
0.00283755
0.0029813
0.00321647
0.00362996
0.000125427
0.000284515
0.000348778
0.000367536
0.000392376
0.000436975
0.000495595
0.000553062
0.000624047
0.000708237
0.000779864
0.000859347
0.000947316
0.00103326
0.0011187
0.0011977
0.00127855
0.00136055
0.00143992
0.00151399
0.00158759
0.0016654
0.00174302
0.00181561
0.00188352
0.00195351
0.00203029
0.00211419
0.00219694
0.00226908
0.00232685
0.00237297
0.00241339
0.00245457
0.00250316
0.00256742
0.00265999
0.00280276
0.00303738
0.00345072
0.000139353
0.000265521
0.000335909
0.000363034
0.000388108
0.000430742
0.000487524
0.000542438
0.000609874
0.000692188
0.000760184
0.000834671
0.000918935
0.000998497
0.00107624
0.00114749
0.00122159
0.00129815
0.00137155
0.00143771
0.0015007
0.00156643
0.00163381
0.00170153
0.00177089
0.00184598
0.00192539
0.00200331
0.00207233
0.00212874
0.00217343
0.00221043
0.00224474
0.00228171
0.00232732
0.00238944
0.00248043
0.00262201
0.00285574
0.00326848
0.000153203
0.00024917
0.00031734
0.000356183
0.00038326
0.000423707
0.000478401
0.000530531
0.000593526
0.000673168
0.000737273
0.000805068
0.000884043
0.000955629
0.00102577
0.00109312
0.00116219
0.00123195
0.00129817
0.001357
0.00141289
0.0014724
0.00153401
0.00159474
0.00165428
0.00171822
0.0017898
0.00186342
0.00192867
0.00197952
0.00201695
0.00204664
0.00207506
0.00210793
0.00215083
0.00221112
0.00230075
0.00244123
0.00267409
0.00308639
0.000163817
0.000235366
0.000299382
0.000344778
0.000375828
0.000415251
0.000468146
0.000517671
0.000575112
0.000650521
0.000709199
0.000768097
0.000842005
0.000909741
0.000973881
0.0010353
0.00109818
0.00116006
0.00121834
0.00126992
0.00131766
0.00136839
0.00142187
0.00147685
0.00153315
0.00159458
0.00166115
0.0017273
0.00178452
0.00182785
0.00185857
0.00188245
0.00190614
0.00193553
0.00197609
0.00203484
0.00212337
0.002263
0.00249524
0.00290722
0.000171248
0.000226133
0.000280819
0.000327307
0.000364833
0.000405078
0.000455872
0.000502426
0.000553437
0.000623671
0.000678404
0.000728572
0.000796359
0.000860123
0.000917053
0.000970605
0.00102679
0.00108145
0.0011315
0.00117599
0.00121693
0.00126144
0.00130985
0.00136077
0.00141309
0.00146944
0.00152931
0.00158711
0.00163543
0.00167071
0.00169492
0.00171381
0.00173386
0.00176076
0.00179973
0.00185746
0.00194525
0.00208424
0.00231593
0.0027276
0.000175771
0.000216839
0.000263384
0.000308215
0.000349354
0.000391174
0.000440324
0.0004844
0.000529288
0.000593666
0.00064485
0.000686012
0.000745492
0.000804221
0.000854428
0.000899314
0.000947999
0.000996388
0.0010388
0.00107611
0.00111055
0.00114938
0.00119404
0.00124374
0.00129577
0.00134813
0.00139871
0.00144443
0.00148156
0.0015084
0.00152696
0.00154216
0.00155978
0.00158507
0.00162306
0.0016802
0.00176757
0.00190618
0.00213754
0.00254907
0.000177006
0.000207812
0.000247178
0.000288493
0.00032898
0.000372044
0.000420301
0.000462853
0.000502319
0.000560094
0.00060782
0.000640031
0.000689245
0.0007422
0.000786369
0.000822916
0.000862788
0.000904912
0.000941104
0.000972014
0.00100097
0.00103565
0.00107842
0.00112751
0.00117729
0.00122285
0.00126256
0.00129614
0.00132288
0.00134252
0.00135682
0.00136966
0.00138591
0.00141032
0.00144769
0.0015044
0.00159145
0.00172979
0.00196092
0.00237238
0.000174819
0.00019807
0.000231069
0.000268028
0.000305947
0.000347764
0.000394825
0.000436714
0.000471663
0.000522351
0.000566642
0.000591095
0.000629028
0.00067442
0.000712611
0.000741488
0.000771727
0.000806969
0.000838308
0.000864602
0.000889554
0.000921242
0.000962802
0.0010106
0.00105575
0.00109244
0.00112065
0.00114281
0.00116062
0.00117473
0.00118635
0.00119811
0.00121378
0.00123759
0.0012743
0.0013304
0.001417
0.00155503
0.00178599
0.00219747
0.000168902
0.000187114
0.000214642
0.000247158
0.000281574
0.000319525
0.000362596
0.000403395
0.000435538
0.000479248
0.000520372
0.000539912
0.000566519
0.000602548
0.000633995
0.000655835
0.000676418
0.000703471
0.000730496
0.000754196
0.000777429
0.000807578
0.00084761
0.000891321
0.000929163
0.000956165
0.00097392
0.000986561
0.000997252
0.00100719
0.0010171
0.00102845
0.00104395
0.00106733
0.00110334
0.00115869
0.00124471
0.00138242
0.00161335
0.00202504
0.000159664
0.000173721
0.000196687
0.000224915
0.00025546
0.000289855
0.000327578
0.000363822
0.000391716
0.000427537
0.000464926
0.000483229
0.000501772
0.000528072
0.000552098
0.000567401
0.000579031
0.00059682
0.000618694
0.000640959
0.000664031
0.000692698
0.000728171
0.000764854
0.000794763
0.000813836
0.000823958
0.000829758
0.000835074
0.00084159
0.000849827
0.000860596
0.000875886
0.000898929
0.000934337
0.000989012
0.00107447
0.00121182
0.00144254
0.00185425
0.000146849
0.000157682
0.000176542
0.00020055
0.0002265
0.000256471
0.000289045
0.000320181
0.00034398
0.000372208
0.000403404
0.000419685
0.00043208
0.000449798
0.000466828
0.000477191
0.00048275
0.000492552
0.000508322
0.000527408
0.000548407
0.0005734
0.000602838
0.000632467
0.000655942
0.000669771
0.00067532
0.000676761
0.000678051
0.000681397
0.000687643
0.000697454
0.000712315
0.000735007
0.000769954
0.000824102
0.000909144
0.00104636
0.0012773
0.00168955
0.0001301
0.000138334
0.000153407
0.000173411
0.000194513
0.000219355
0.000247086
0.000273152
0.000292186
0.000313602
0.000338026
0.000350108
0.000356514
0.00036563
0.000374461
0.000378776
0.000378641
0.000381157
0.000390233
0.000405546
0.000425245
0.000448067
0.000472219
0.000494543
0.000511195
0.000520051
0.000522181
0.000520859
0.00051953
0.000520467
0.000524784
0.000533248
0.000547199
0.000569163
0.000603399
0.000656854
0.000741357
0.000878299
0.00110928
0.00152189
0.000110239
0.000115676
0.000126713
0.000142578
0.000159165
0.00017847
0.000201092
0.00022225
0.000236398
0.000251658
0.000270295
0.000278852
0.000281137
0.000285168
0.000289006
0.000289192
0.000285598
0.000283402
0.000286379
0.000295529
0.000309986
0.000327806
0.000345899
0.000361047
0.000370707
0.000374135
0.000372795
0.000369409
0.000366662
0.000366366
0.00036948
0.000376791
0.000389663
0.000410596
0.000443798
0.000496176
0.000579519
0.000715278
0.000945136
0.00135671
8.50485e-05
8.90309e-05
9.67902e-05
0.00010875
0.000121227
0.000134668
0.00015101
0.000167056
0.000175474
0.000182771
0.000194117
0.000196566
0.000190696
0.000185393
0.000180534
0.000173213
0.000163636
0.000157111
0.000157892
0.000166821
0.000180943
0.000196038
0.000209272
0.000219016
0.000224218
0.000224643
0.000221264
0.000216122
0.000211662
0.000209938
0.000212414
0.000220138
0.000234416
0.000257487
0.00029326
0.000348423
0.000434667
0.000573382
0.000806222
0.00122085
5.82289e-05
5.69305e-05
6.08203e-05
6.94397e-05
7.98185e-05
8.9041e-05
9.97884e-05
0.000111058
0.00011658
0.000118906
0.000126982
0.000130545
0.000125977
0.000120736
0.000117059
0.000111191
0.000100668
8.79057e-05
7.5876e-05
6.53211e-05
5.61322e-05
4.9764e-05
4.94174e-05
5.70718e-05
6.91307e-05
7.87995e-05
8.12086e-05
7.56847e-05
6.48088e-05
5.21771e-05
4.11054e-05
3.42547e-05
3.40925e-05
4.35069e-05
6.67808e-05
0.000110815
0.000187523
0.000318537
0.00054589
0.000957809
2.30155e-05
2.37847e-05
2.50469e-05
2.82617e-05
3.18468e-05
3.47658e-05
3.7939e-05
4.22445e-05
4.25198e-05
3.67428e-05
3.33163e-05
2.77446e-05
1.36047e-05
-3.85914e-06
-1.98465e-05
-3.46043e-05
-5.01586e-05
-6.40915e-05
-7.183e-05
-7.06773e-05
-6.24883e-05
-5.28222e-05
-4.61397e-05
-4.40478e-05
-4.61801e-05
-5.14592e-05
-5.84897e-05
-6.55778e-05
-7.08325e-05
-7.25746e-05
-6.9522e-05
-6.06777e-05
-4.48291e-05
-1.99012e-05
1.79018e-05
7.53043e-05
0.000164211
0.000306339
0.000543705
0.000964306
-2.21497e-05
-1.64385e-05
-1.26375e-05
-1.02318e-05
-1.01527e-05
-1.32768e-05
-1.66641e-05
-1.68269e-05
-1.64971e-05
-1.96058e-05
-2.19649e-05
-2.2817e-05
-2.88134e-05
-3.84974e-05
-4.81096e-05
-5.62314e-05
-6.5586e-05
-7.69699e-05
-8.92707e-05
-0.000101076
-0.00011281
-0.000125547
-0.000140027
-0.000156124
-0.000173684
-0.000192893
-0.00021424
-0.000238149
-0.000264906
-0.000294659
-0.000327762
-0.000364999
-0.00040791
-0.000459047
-0.000522613
-0.000605564
-0.000719973
-0.00088776
-0.00115132
-0.00159922
-5.77809e-05
-5.93845e-05
-6.36275e-05
-6.94803e-05
-7.57321e-05
-8.24433e-05
-9.05626e-05
-9.91064e-05
-0.000108278
-0.000121966
-0.000139003
-0.000156122
-0.000176095
-0.000199147
-0.000222085
-0.000241249
-0.000255354
-0.000264069
-0.00026725
-0.000266843
-0.000266195
-0.00026857
-0.000275202
-0.000285035
-0.000295687
-0.000304993
-0.000311682
-0.000315255
-0.000315484
-0.000312084
-0.000304513
-0.000291889
-0.000272798
-0.000244928
-0.000204365
-0.000144376
-5.30981e-05
9.11602e-05
0.000330401
0.00075259
-0.000105536
-0.000107117
-0.000110412
-0.000115554
-0.000121769
-0.00012748
-0.000134848
-0.000143276
-0.000150792
-0.000158868
-0.00016899
-0.00017915
-0.000189903
-0.000202446
-0.000216605
-0.000231466
-0.00024699
-0.00026398
-0.000282769
-0.000303231
-0.000325158
-0.000348784
-0.00037445
-0.000402402
-0.000432616
-0.000464852
-0.000498885
-0.000534676
-0.000572329
-0.000612092
-0.000654401
-0.000700051
-0.000750445
-0.000807983
-0.000876694
-0.000963399
-0.00107998
-0.0012481
-0.00150971
-0.00195275
-0.000156972
-0.00016248
-0.000171831
-0.000184228
-0.00020009
-0.000215538
-0.000232094
-0.000251243
-0.000271363
-0.000292086
-0.000314868
-0.000339061
-0.000363133
-0.000385839
-0.000405393
-0.000419842
-0.000428169
-0.000432424
-0.000436187
-0.000442221
-0.000451378
-0.000463061
-0.000475876
-0.0004882
-0.000498647
-0.00050634
-0.000510878
-0.000512191
-0.000510324
-0.0005052
-0.000496436
-0.000483191
-0.000463982
-0.00043636
-0.000396294
-0.000336989
-0.000246586
-0.000103441
0.000134403
0.000554905
-0.000207691
-0.000211513
-0.000217988
-0.000225636
-0.000236932
-0.000248795
-0.000260432
-0.000273942
-0.00028845
-0.000302582
-0.000316835
-0.000332257
-0.000348791
-0.000366171
-0.000384172
-0.000402927
-0.000422702
-0.00044385
-0.000466583
-0.00049093
-0.000516858
-0.000544386
-0.00057365
-0.000604791
-0.000637725
-0.00067221
-0.000708014
-0.000745013
-0.000783273
-0.000823066
-0.000864929
-0.000909762
-0.000959043
-0.0010152
-0.00108224
-0.001167
-0.00128135
-0.00144697
-0.00170585
-0.00214595
-0.000275258
-0.000282923
-0.000296967
-0.000314181
-0.000335778
-0.000360087
-0.000384731
-0.000410497
-0.000436976
-0.000462963
-0.000487201
-0.000508866
-0.000526854
-0.000540178
-0.000549391
-0.000556566
-0.000564061
-0.000573325
-0.000584717
-0.000597542
-0.000610683
-0.000622971
-0.000633571
-0.00064195
-0.000647998
-0.000651753
-0.000653285
-0.000652562
-0.000649448
-0.000643632
-0.00063457
-0.000621339
-0.000602431
-0.000575378
-0.000536122
-0.000477832
-0.000388625
-0.000246842
-1.05337e-05
0.000408253
-0.000322502
-0.000324805
-0.000330745
-0.000339363
-0.000351439
-0.000366901
-0.000384174
-0.000402447
-0.000421851
-0.000443073
-0.000466018
-0.000488875
-0.000509949
-0.000528567
-0.000545371
-0.000560966
-0.000576155
-0.000591523
-0.000607877
-0.000625675
-0.000645166
-0.000666214
-0.000688722
-0.000712645
-0.000738034
-0.000764886
-0.000793236
-0.000823093
-0.000854577
-0.000887954
-0.000923782
-0.000962999
-0.00100715
-0.00105871
-0.00112175
-0.00120309
-0.00131462
-0.00147803
-0.00173537
-0.00217471
-0.000409109
-0.000416498
-0.000430875
-0.000451552
-0.000477299
-0.000506418
-0.000537791
-0.000568046
-0.000595235
-0.000618861
-0.000639395
-0.000656446
-0.000670201
-0.000681101
-0.000690098
-0.000697451
-0.000703267
-0.000707484
-0.00071044
-0.000712389
-0.000713512
-0.000713634
-0.000712545
-0.000710006
-0.000705991
-0.000700552
-0.000693783
-0.000685641
-0.000675974
-0.000664429
-0.000650446
-0.000633095
-0.000610888
-0.000581382
-0.000540552
-0.000481598
-0.000392692
-0.00025225
-1.84744e-05
0.000396347
0.00622144
0.00629534
0.00657709
0.00675696
0.00675621
0.00657965
0.00628653
0.00594736
0.00561445
0.00531628
0.00506387
0.00485714
0.00468837
0.00454662
0.00442124
0.00430371
0.00418822
0.00407138
0.00395178
0.00382936
0.003705
0.00357991
0.00345542
0.00333251
0.00321191
0.00309371
0.00297779
0.00286349
0.00275016
0.00263689
0.00252297
0.00240764
0.00229039
0.0021708
0.00204858
0.00192354
0.00179518
0.0016631
0.00152622
0.00138397
0.00123474
0.0010778
0.000911039
0.000733594
0.00054353
0.000339441
0.000120695
-0.000116358
-0.000374116
-0.000660884
-0.000979479
-0.0013427
-0.00175897
-0.00222423
-0.00275314
-0.003354
-0.00403539
-0.00478934
-0.00556455
-0.00629702
-0.00688784
-0.00721699
-0.0072401
-0.00698334
-0.00656185
-0.00612737
-0.00573625
-0.00542355
-0.00524273
-0.00515543
-0.00510877
-0.00512134
-0.00518295
-0.00524742
-0.00532037
-0.00540777
-0.00549786
-0.00559265
-0.00568652
-0.00578706
-0.00589116
-0.00599045
-0.00609572
-0.00619728
-0.00629432
-0.00639507
-0.00648594
-0.00656571
-0.00664578
-0.00672058
-0.0067839
-0.00683996
-0.00689679
-0.00694607
-0.0069909
-0.00703519
-0.00708178
-0.00712367
-0.00716433
-0.00720006
0.00491221
0.00498647
0.00543951
0.00588192
0.00614867
0.0061999
0.00606023
0.00580162
0.00550059
0.00521075
0.00495913
0.0047543
0.00459266
0.00446265
0.00435068
0.00424541
0.00413945
0.00402914
0.00391363
0.00379368
0.00367103
0.00354741
0.00342442
0.00330303
0.0031839
0.00306703
0.00295227
0.00283895
0.00272648
0.0026139
0.00250055
0.00238563
0.00226867
0.00214924
0.00202705
0.00190208
0.00177384
0.00164198
0.00150531
0.00136336
0.00121435
0.00105775
0.000891252
0.000714206
0.000524542
0.000320905
0.000102684
-0.00013389
-0.000390999
-0.000677162
-0.000994528
-0.00135611
-0.00177033
-0.00223254
-0.00275715
-0.00335225
-0.00402588
-0.00477127
-0.00553861
-0.00626457
-0.00685219
-0.00718209
-0.00721026
-0.00695996
-0.00654364
-0.00611406
-0.00572632
-0.00541457
-0.00523491
-0.00514898
-0.00510258
-0.00511542
-0.00517782
-0.00524269
-0.00531581
-0.00540373
-0.00549441
-0.0055896
-0.00568378
-0.00578468
-0.00588916
-0.00598876
-0.00609428
-0.00619607
-0.00629331
-0.00639425
-0.00648528
-0.00656517
-0.00664535
-0.00672024
-0.00678363
-0.00683974
-0.00689662
-0.00694594
-0.00699079
-0.0070351
-0.0070817
-0.00712362
-0.00716429
-0.00720002
0.00472155
0.00482693
0.00532164
0.00580879
0.00611631
0.00620032
0.00608117
0.00582953
0.00552474
0.00522525
0.00496235
0.0047473
0.00457847
0.00444491
0.00433225
0.00422773
0.00412269
0.00401263
0.00389639
0.00377485
0.00365008
0.00352431
0.00339943
0.00327661
0.00315646
0.00303894
0.00292374
0.0028101
0.00269732
0.00258444
0.00247075
0.00235551
0.00223829
0.0021187
0.00199646
0.00187118
0.00174232
0.00160961
0.00147212
0.00132935
0.00117975
0.00102263
0.000855963
0.000678794
0.000489414
0.000286013
6.80512e-05
-0.000168443
-0.000425342
-0.000710808
-0.00102714
-0.00138559
-0.00179496
-0.00225139
-0.00276758
-0.00335109
-0.00400859
-0.00473029
-0.00546851
-0.00616653
-0.00673625
-0.00706853
-0.00711838
-0.00689738
-0.0065074
-0.00609774
-0.0057242
-0.00542013
-0.00524216
-0.0051557
-0.00510862
-0.00512011
-0.00518069
-0.00524445
-0.00531712
-0.00540427
-0.00549412
-0.00558895
-0.00568291
-0.00578355
-0.00588777
-0.00598719
-0.00609268
-0.00619448
-0.00629174
-0.00639276
-0.0064839
-0.00656394
-0.00664428
-0.00671934
-0.00678289
-0.00683915
-0.00689616
-0.0069456
-0.00699055
-0.00703494
-0.0070816
-0.00712356
-0.00716428
-0.00720003
0.0041332
0.00421779
0.00470722
0.00521501
0.00556599
0.00571177
0.00566308
0.00547865
0.00523006
0.00497373
0.00474249
0.00455001
0.00439789
0.00427859
0.00417997
0.0040899
0.00399923
0.00390259
0.00379803
0.00368601
0.00356864
0.00344854
0.00332823
0.00320943
0.00309309
0.00297929
0.00286764
0.00275727
0.00264732
0.0025368
0.002425
0.00231127
0.0021952
0.00207654
0.00195496
0.00183034
0.00170206
0.00156998
0.00143297
0.00129074
0.00114153
0.00098483
0.000818621
0.000641881
0.000453108
0.000250143
3.25671e-05
-0.000203721
-0.000460237
-0.000744839
-0.0010597
-0.00141458
-0.00181875
-0.00226883
-0.00277564
-0.0033453
-0.00398239
-0.00467776
-0.0053872
-0.00605722
-0.00660949
-0.00694228
-0.0070118
-0.00682068
-0.00645718
-0.00606828
-0.00570986
-0.00541354
-0.00523755
-0.00515221
-0.0051055
-0.00511627
-0.00517618
-0.00523957
-0.00531185
-0.00539906
-0.00548928
-0.00558425
-0.00567835
-0.00577926
-0.00588377
-0.00598344
-0.00608916
-0.00619115
-0.00628858
-0.00638982
-0.00648123
-0.00656151
-0.0066421
-0.00671741
-0.00678121
-0.00683771
-0.00689494
-0.00694459
-0.00698972
-0.00703429
-0.00708108
-0.0071232
-0.00716406
-0.00719988
0.00386827
0.00397141
0.00448592
0.00502179
0.00540173
0.00557599
0.00555344
0.00539082
0.00515867
0.00491363
0.00468952
0.00450117
0.00435142
0.00423412
0.00413803
0.00405126
0.00396431
0.00387124
0.00376956
0.00365939
0.00354275
0.00342252
0.00330159
0.00318209
0.00306525
0.00295127
0.00283966
0.00272938
0.00261938
0.00250858
0.00239629
0.00228189
0.0021651
0.00204571
0.00192352
0.00179835
0.00166967
0.00153711
0.00139966
0.00125681
0.00110708
0.000949794
0.000783251
0.000606228
0.000417415
0.000214507
-3.04291e-06
-0.000239099
-0.000495426
-0.000778998
-0.00109236
-0.00144384
-0.00184249
-0.0022856
-0.00278214
-0.00333664
-0.003953
-0.00462195
-0.00530128
-0.00594098
-0.00647162
-0.00680072
-0.00688754
-0.00672836
-0.00639759
-0.00603401
-0.00569462
-0.0054108
-0.00523912
-0.00515507
-0.00510904
-0.00511883
-0.00517677
-0.00523898
-0.00531069
-0.00539714
-0.00548657
-0.00558108
-0.00567493
-0.00577554
-0.00587975
-0.00597923
-0.00608488
-0.00618691
-0.00628435
-0.00638558
-0.00647716
-0.0065577
-0.00663854
-0.00671418
-0.00677836
-0.00683523
-0.0068928
-0.00694283
-0.00698829
-0.00703317
-0.00708016
-0.00712254
-0.00716363
-0.00719958
0.00354741
0.00364198
0.0041519
0.00468849
0.00507405
0.00525831
0.005249
0.00510156
0.00488564
0.00465741
0.00445031
0.00427888
0.00414559
0.0040439
0.00396227
0.00388864
0.00381349
0.003731
0.00363883
0.00353725
0.00342846
0.00331547
0.00320129
0.00308807
0.00297708
0.00286849
0.0027618
0.00265591
0.00254974
0.00244224
0.00233276
0.00222084
0.00210625
0.00198886
0.00186844
0.00174491
0.00161768
0.00148641
0.00135007
0.00120815
0.00105933
0.000902809
0.00073718
0.000560997
0.000373183
0.000171295
-4.53217e-05
-0.000280375
-0.000535623
-0.000817386
-0.00112845
-0.00147578
-0.00186787
-0.00230287
-0.002788
-0.00332668
-0.0039217
-0.00456327
-0.00521209
-0.00582133
-0.00633097
-0.00665759
-0.00676204
-0.00663599
-0.00633763
-0.00599891
-0.00567858
-0.00540624
-0.00523757
-0.00515372
-0.00510796
-0.00511654
-0.00517296
-0.0052344
-0.00530542
-0.00539145
-0.00548085
-0.00557528
-0.00566908
-0.00576972
-0.005874
-0.00597358
-0.00607933
-0.00618148
-0.00627897
-0.00638033
-0.0064722
-0.00655306
-0.00663418
-0.00671016
-0.00677475
-0.00683202
-0.00688996
-0.00694044
-0.00698627
-0.00703153
-0.00707877
-0.00712152
-0.0071629
-0.00719906
0.00332078
0.00341519
0.00392409
0.00445614
0.00483526
0.00501348
0.00500154
0.00485771
0.00465264
0.0044417
0.00425678
0.00411009
0.00400153
0.00392188
0.0038579
0.00379719
0.00373099
0.00365467
0.00356708
0.00346955
0.00336498
0.00325662
0.00314728
0.00303874
0.00293188
0.0028266
0.00272232
0.002618
0.00251275
0.0024057
0.00229644
0.00218461
0.00207009
0.00195271
0.00183227
0.0017086
0.00158119
0.00144967
0.00131304
0.00117077
0.00102161
0.000864773
0.000698929
0.000522689
0.000334887
0.00013332
-8.31135e-05
-0.000317578
-0.000572099
-0.000852369
-0.00116103
-0.00150429
-0.00188965
-0.00231607
-0.00278969
-0.00331217
-0.00388531
-0.00449963
-0.00511839
-0.00569792
-0.00618723
-0.00651014
-0.00662942
-0.00653429
-0.006269
-0.00595675
-0.00565672
-0.00539775
-0.00523393
-0.00515181
-0.00510728
-0.00511577
-0.00517091
-0.00523152
-0.00530211
-0.00538768
-0.00547662
-0.00557071
-0.00566432
-0.00576473
-0.00586878
-0.0059682
-0.00607388
-0.00617601
-0.00627348
-0.00637484
-0.00646689
-0.00654803
-0.00662939
-0.00670572
-0.00677072
-0.00682842
-0.00688674
-0.00693772
-0.00698396
-0.00702967
-0.00707718
-0.00712033
-0.00716203
-0.00719844
0.00318762
0.00330395
0.0038284
0.00435393
0.0047072
0.00484527
0.00479007
0.00461369
0.00439411
0.00418541
0.00401367
0.0038865
0.00379906
0.00373804
0.00368814
0.00363695
0.00357693
0.00350505
0.00342157
0.00332898
0.00323068
0.00312978
0.00302856
0.00292813
0.00282877
0.00273
0.00263112
0.00253119
0.00242959
0.00232573
0.0022194
0.00211036
0.00199855
0.00188377
0.00176577
0.00164431
0.00151886
0.00138907
0.00125402
0.00111315
0.000965308
0.000809725
0.00064513
0.000470217
0.000283729
8.36785e-05
-0.000131283
-0.000364058
-0.00061662
-0.000894258
-0.00119928
-0.00153741
-0.00191498
-0.00233159
-0.0027926
-0.00329778
-0.00384847
-0.0044352
-0.00502409
-0.00557467
-0.00604319
-0.00636144
-0.00649404
-0.00642962
-0.00619885
-0.00591392
-0.00563487
-0.00538979
-0.00523111
-0.00515041
-0.00510683
-0.00511436
-0.00516793
-0.00522773
-0.00529746
-0.0053822
-0.00547076
-0.00556463
-0.00565809
-0.00575835
-0.00586232
-0.00596173
-0.00606745
-0.00616969
-0.00626719
-0.0063686
-0.00646094
-0.00654243
-0.00662407
-0.00670079
-0.00676626
-0.00682444
-0.00688317
-0.00693469
-0.00698139
-0.00702757
-0.00707537
-0.00711896
-0.00716101
-0.0071977
0.00300204
0.00305541
0.00350592
0.00396651
0.00427866
0.00440781
0.00437669
0.00424728
0.00408344
0.0039282
0.00380152
0.00370777
0.00364063
0.00358841
0.00354015
0.00348848
0.00342947
0.00336183
0.00328622
0.00320431
0.00311815
0.00302938
0.00293918
0.00284798
0.00275592
0.00266262
0.00256779
0.00247092
0.00237179
0.00227008
0.0021657
0.00205848
0.00194832
0.00183502
0.00171825
0.0015978
0.00147308
0.00134385
0.00120917
0.00106863
0.000921017
0.000765716
0.000601386
0.000426937
0.000240921
4.16425e-05
-0.000172445
-0.000404109
-0.00065497
-0.000930285
-0.00123175
-0.00156472
-0.00193459
-0.002341
-0.00278908
-0.00327706
-0.00380514
-0.0043646
-0.00492448
-0.00544679
-0.00589477
-0.00620796
-0.0063524
-0.00631709
-0.00612072
-0.00586387
-0.00560649
-0.00537656
-0.00522438
-0.00514595
-0.00510384
-0.00511126
-0.00516369
-0.00522279
-0.00529213
-0.00537646
-0.00546474
-0.00555844
-0.00565184
-0.00575202
-0.00585589
-0.00595523
-0.00606094
-0.00616323
-0.00626072
-0.00636217
-0.00645475
-0.00653657
-0.0066185
-0.0066956
-0.00676155
-0.00682023
-0.00687939
-0.00693147
-0.00697865
-0.00702534
-0.00707346
-0.0071175
-0.00715992
-0.00719691
0.00488056
0.00480021
0.00431248
0.00380684