/*--------------------------------*- C++ -*----------------------------------*\
| =========                 |                                                 |
| \\      /  F ield         | OpenFOAM: The Open Source CFD Toolbox           |
|  \\    /   O peration     | Version:  2312                                  |
|   \\  /    A nd           | Website:  www.openfoam.com                      |
|    \\/     M anipulation  |                                                 |
\*---------------------------------------------------------------------------*/
FoamFile
{
    version     2.0;
    format      ascii;
    arch        "LSB;label=32;scalar=64";
    class       surfaceScalarField;
    location    "0.7";
    object      phi;
}
// * * * * * * * * * * * * * * * * * * * * * * * * * * * * * * * * * * * * * //

dimensions      [0 3 -1 0 0 0 0];

oriented        oriented;

internalField   nonuniform List<scalar> 
11020
(
3.8776e-06
-6.66932e-08
3.87741e-06
5.34035e-08
3.87744e-06
-4.38409e-08
3.87759e-06
3.51877e-08
3.87762e-06
-3.27226e-08
3.87788e-06
2.41582e-08
3.87742e-06
-1.92842e-08
3.87759e-06
1.84335e-08
3.87674e-06
-1.14744e-08
3.8768e-06
1.28005e-08
3.87585e-06
-6.42754e-09
3.87602e-06
8.35165e-09
3.87521e-06
-4.74178e-09
3.87532e-06
5.1265e-09
3.87453e-06
-2.81418e-09
3.87449e-06
3.99809e-09
3.87374e-06
-1.15755e-09
3.87353e-06
3.90154e-09
3.87281e-06
3.88435e-10
3.87247e-06
4.10133e-09
3.87172e-06
1.3953e-09
3.87124e-06
4.14753e-09
3.87045e-06
2.12944e-09
3.86984e-06
4.20352e-09
3.86901e-06
2.74961e-09
3.86831e-06
4.25089e-09
3.86744e-06
3.17812e-09
3.86666e-06
4.23242e-09
3.86574e-06
3.43235e-09
3.86484e-06
4.19892e-09
3.86377e-06
3.69853e-09
3.8626e-06
4.44725e-09
3.86119e-06
4.43859e-09
3.85961e-06
5.47273e-09
3.8578e-06
5.94657e-09
3.85582e-06
7.08498e-09
3.85361e-06
7.73001e-09
3.85118e-06
9.0078e-09
3.84846e-06
1.01562e-08
1.19172e-08
3.84548e-06
4.18303e-06
-6.38629e-08
4.18769e-06
4.87456e-08
4.18385e-06
-4.00039e-08
4.18786e-06
3.11735e-08
4.18455e-06
-2.94067e-08
4.18813e-06
2.05816e-08
4.18486e-06
-1.60144e-08
4.18784e-06
1.54506e-08
4.18448e-06
-8.12016e-09
4.18659e-06
1.06964e-08
4.18366e-06
-3.49919e-09
4.18552e-06
6.49544e-09
4.18325e-06
-2.47192e-09
4.18453e-06
3.84516e-09
4.18265e-06
-9.32092e-10
4.1835e-06
3.14083e-09
4.18195e-06
3.90945e-10
4.18241e-06
3.44154e-09
4.18112e-06
1.67889e-09
4.18123e-06
3.999e-09
4.17996e-06
2.6591e-09
4.17978e-06
4.33357e-09
4.17855e-06
3.3583e-09
4.17816e-06
4.59555e-09
4.17699e-06
3.91518e-09
4.17644e-06
4.80509e-09
4.17529e-06
4.32158e-09
4.17456e-06
4.96088e-09
4.17334e-06
4.65308e-09
4.17235e-06
5.19437e-09
4.1709e-06
5.147e-09
4.16954e-06
5.80349e-09
4.16787e-06
6.11129e-09
4.16641e-06
6.93573e-09
4.16488e-06
7.47486e-09
4.16361e-06
8.35096e-09
4.16236e-06
8.98533e-09
4.16145e-06
9.91198e-09
4.16087e-06
1.07427e-08
1.17962e-08
4.16099e-06
4.51653e-06
-6.03287e-08
4.52086e-06
4.44139e-08
4.51689e-06
-3.60372e-08
4.52018e-06
2.78839e-08
4.51692e-06
-2.61468e-08
4.51998e-06
1.75229e-08
4.51713e-06
-1.31607e-08
4.51966e-06
1.29167e-08
4.51675e-06
-5.20976e-09
4.51825e-06
9.19418e-09
4.51576e-06
-1.00821e-09
4.51705e-06
5.20879e-09
4.51523e-06
-6.52994e-10
4.51603e-06
3.04268e-09
4.51448e-06
6.17616e-10
4.51498e-06
2.6476e-09
4.51365e-06
1.71877e-09
4.51384e-06
3.24688e-09
4.5127e-06
2.82148e-09
4.51263e-06
4.07333e-09
4.51152e-06
3.76614e-09
4.51118e-06
4.67583e-09
4.51004e-06
4.49057e-09
4.5095e-06
5.13518e-09
4.50838e-06
5.03731e-09
4.5077e-06
5.4921e-09
4.50657e-06
5.45139e-09
4.50575e-06
5.77188e-09
4.50459e-06
5.822e-09
4.50351e-06
6.27439e-09
4.50203e-06
6.62349e-09
4.50057e-06
7.25919e-09
4.4989e-06
7.78693e-09
4.49743e-06
8.4016e-09
4.496e-06
8.90351e-09
4.49484e-06
9.5134e-09
4.49374e-06
1.00912e-08
4.4929e-06
1.07479e-08
4.49231e-06
1.13369e-08
1.18916e-08
4.49221e-06
4.87777e-06
-5.71477e-08
4.88124e-06
4.09453e-08
4.87779e-06
-3.25936e-08
4.88032e-06
2.53573e-08
4.87719e-06
-2.30138e-08
4.87975e-06
1.49541e-08
4.87717e-06
-1.05748e-08
4.87926e-06
1.08232e-08
4.8768e-06
-2.74594e-09
4.87794e-06
8.05497e-09
4.87587e-06
1.06104e-09
4.87654e-06
4.53289e-09
4.87513e-06
7.5849e-10
4.87535e-06
2.82891e-09
4.87436e-06
1.60181e-09
4.87422e-06
2.79284e-09
4.8734e-06
2.53787e-09
4.87301e-06
3.63828e-09
4.87217e-06
3.65766e-09
4.87163e-06
4.61627e-09
4.87077e-06
4.61994e-09
4.8701e-06
5.3504e-09
4.8692e-06
5.3921e-09
4.8684e-06
5.93517e-09
4.86743e-06
6.00338e-09
4.8665e-06
6.42351e-09
4.86537e-06
6.57995e-09
4.86416e-06
6.98723e-09
4.86274e-06
7.23472e-09
4.86136e-06
7.65435e-09
4.85994e-06
8.0509e-09
4.85857e-06
8.62355e-09
4.85725e-06
9.1109e-09
4.85602e-06
9.62692e-09
4.8549e-06
1.00292e-08
4.85396e-06
1.04547e-08
4.85322e-06
1.08239e-08
4.85277e-06
1.11972e-08
4.85263e-06
1.14843e-08
1.16904e-08
4.85283e-06
5.26748e-06
-5.39784e-08
5.2708e-06
3.76198e-08
5.26742e-06
-2.92147e-08
5.26998e-06
2.27972e-08
5.26664e-06
-1.96662e-08
5.26919e-06
1.23976e-08
5.26646e-06
-7.8462e-09
5.26843e-06
8.85351e-09
5.26605e-06
-3.65793e-10
5.26724e-06
6.86473e-09
5.26533e-06
2.97958e-09
5.26583e-06
4.02502e-09
5.2644e-06
2.19232e-09
5.26452e-06
2.71077e-09
5.2636e-06
2.51838e-09
5.26323e-06
3.16319e-09
5.26231e-06
3.45691e-09
5.26175e-06
4.20452e-09
5.26083e-06
4.5703e-09
5.2602e-06
5.24589e-09
5.25931e-06
5.51491e-09
5.25861e-06
6.04891e-09
5.2577e-06
6.30223e-09
5.25688e-06
6.75739e-09
5.25588e-06
7.00302e-09
5.25492e-06
7.38375e-09
5.25385e-06
7.65061e-09
5.25276e-06
8.07479e-09
5.25146e-06
8.5324e-09
5.24999e-06
9.12586e-09
5.2484e-06
9.6444e-09
5.2469e-06
1.01249e-08
5.24554e-06
1.04662e-08
5.2444e-06
1.07697e-08
5.24341e-06
1.10158e-08
5.24261e-06
1.1254e-08
5.24198e-06
1.14511e-08
5.24159e-06
1.15948e-08
5.24143e-06
1.16457e-08
1.16294e-08
5.24149e-06
5.68815e-06
-5.06721e-08
5.69156e-06
3.42155e-08
5.68806e-06
-2.57202e-08
5.69079e-06
2.00689e-08
5.68731e-06
-1.61812e-08
5.68983e-06
9.87454e-09
5.6871e-06
-5.11493e-09
5.68879e-06
7.15789e-09
5.68664e-06
1.78598e-09
5.68755e-06
5.95944e-09
5.68615e-06
4.37407e-09
5.6862e-06
3.97798e-09
5.68528e-06
3.10742e-09
5.68498e-06
3.01216e-09
5.68411e-06
3.39619e-09
5.68352e-06
3.75197e-09
5.68261e-06
4.35898e-09
5.68185e-06
4.9678e-09
5.68091e-06
5.51463e-09
5.68012e-06
6.0369e-09
5.6792e-06
6.43551e-09
5.67841e-06
6.83538e-09
5.67751e-06
7.20424e-09
5.67663e-06
7.62929e-09
5.67563e-06
8.00595e-09
5.67454e-06
8.47378e-09
5.67326e-06
8.93746e-09
5.67186e-06
9.46987e-09
5.67041e-06
9.98177e-09
5.66902e-06
1.05137e-08
5.66769e-06
1.09775e-08
5.66643e-06
1.13799e-08
5.66526e-06
1.16434e-08
5.66418e-06
1.18436e-08
5.66325e-06
1.19503e-08
5.66249e-06
1.20094e-08
5.66196e-06
1.19823e-08
5.66167e-06
1.18832e-08
5.66162e-06
1.16955e-08
1.14287e-08
5.66182e-06
6.14239e-06
-4.71935e-08
6.14594e-06
3.06641e-08
6.14225e-06
-2.20264e-08
6.14517e-06
1.71476e-08
6.14156e-06
-1.25727e-08
6.14404e-06
7.39547e-09
6.14131e-06
-2.38729e-09
6.14287e-06
5.59806e-09
6.14081e-06
3.84651e-09
6.14153e-06
5.24686e-09
6.1404e-06
5.50364e-09
6.14026e-06
4.11253e-09
6.13935e-06
4.02311e-09
6.13896e-06
3.40164e-09
6.13804e-06
4.30904e-09
6.13739e-06
4.40649e-09
6.13646e-06
5.29078e-09
6.13565e-06
5.7743e-09
6.13463e-06
6.53111e-09
6.13377e-06
6.89632e-09
6.13277e-06
7.43771e-09
6.13191e-06
7.69362e-09
6.13095e-06
8.16852e-09
6.13001e-06
8.56857e-09
6.12895e-06
9.0655e-09
6.12787e-06
9.55009e-09
6.12665e-06
1.01612e-08
6.12525e-06
1.08678e-08
6.12373e-06
1.15035e-08
6.12224e-06
1.2007e-08
6.1209e-06
1.23185e-08
6.11971e-06
1.25701e-08
6.11862e-06
1.27339e-08
6.11761e-06
1.2855e-08
6.1167e-06
1.28522e-08
6.11597e-06
1.27465e-08
6.11541e-06
1.25386e-08
6.11507e-06
1.22179e-08
6.11497e-06
1.17985e-08
1.11834e-08
6.11522e-06
6.63293e-06
-4.35601e-08
6.6366e-06
2.69879e-08
6.63275e-06
-1.81767e-08
6.63575e-06
1.4152e-08
6.63221e-06
-9.02968e-09
6.63441e-06
5.19415e-09
6.6319e-06
1.26273e-10
6.63312e-06
4.37481e-09
6.63147e-06
5.4966e-09
6.63171e-06
5.00928e-09
6.63101e-06
6.1957e-09
6.63071e-06
4.41693e-09
6.62959e-06
5.14197e-09
6.62914e-06
3.84734e-09
6.62813e-06
5.32496e-09
6.6275e-06
5.03449e-09
6.62645e-06
6.34512e-09
6.62572e-06
6.50462e-09
6.6246e-06
7.6458e-09
6.62378e-06
7.71985e-09
6.62266e-06
8.55734e-09
6.62178e-06
8.5747e-09
6.6207e-06
9.24979e-09
6.61975e-06
9.51097e-09
6.61858e-06
1.02421e-08
6.61728e-06
1.08445e-08
6.61573e-06
1.17161e-08
6.6143e-06
1.22938e-08
6.61289e-06
1.29109e-08
6.61169e-06
1.32068e-08
6.61048e-06
1.35312e-08
6.60939e-06
1.36639e-08
6.6083e-06
1.38244e-08
6.60735e-06
1.38047e-08
6.60645e-06
1.37536e-08
6.60571e-06
1.34855e-08
6.60509e-06
1.31546e-08
6.60467e-06
1.26362e-08
6.60426e-06
1.2212e-08
1.14176e-08
6.60403e-06
7.16265e-06
-3.97755e-08
7.16645e-06
2.31836e-08
7.16245e-06
-1.41729e-08
7.16547e-06
1.11274e-08
7.16204e-06
-5.59799e-09
7.16399e-06
3.24483e-09
7.16162e-06
2.49352e-09
7.16254e-06
3.45397e-09
7.16135e-06
6.68881e-09
7.16119e-06
5.1681e-09
7.1606e-06
6.78565e-09
7.1602e-06
4.82094e-09
7.15915e-06
6.19334e-09
7.15849e-06
4.50718e-09
7.15745e-06
6.36544e-09
7.15671e-06
5.76774e-09
7.15564e-06
7.4213e-09
7.15485e-06
7.29027e-09
7.15376e-06
8.73183e-09
7.15289e-06
8.58951e-09
7.15177e-06
9.67891e-09
7.15075e-06
9.59301e-09
7.14952e-06
1.04832e-08
7.14826e-06
1.07711e-08
7.14671e-06
1.17894e-08
7.14528e-06
1.22792e-08
7.14391e-06
1.30872e-08
7.14278e-06
1.34228e-08
7.14171e-06
1.39831e-08
7.14069e-06
1.4227e-08
7.13959e-06
1.46293e-08
7.13851e-06
1.47458e-08
7.13734e-06
1.49939e-08
7.13619e-06
1.49523e-08
7.13501e-06
1.49283e-08
7.1339e-06
1.4604e-08
7.13281e-06
1.42444e-08
7.13193e-06
1.35118e-08
7.13179e-06
1.23498e-08
1.07505e-08
7.13246e-06
7.7347e-06
-3.58723e-08
7.73857e-06
1.93111e-08
7.73454e-06
-1.01352e-08
7.73738e-06
8.28355e-09
7.7343e-06
-2.51577e-09
7.73568e-06
1.86298e-09
7.73404e-06
4.1341e-09
7.73369e-06
3.79846e-09
7.73365e-06
6.72951e-09
7.73304e-06
5.78352e-09
7.73264e-06
7.17979e-09
7.7318e-06
5.66713e-09
7.73109e-06
6.90185e-09
7.73002e-06
5.58015e-09
7.72919e-06
7.18786e-09
7.72812e-06
6.84104e-09
7.72723e-06
8.31075e-09
7.72617e-06
8.35603e-09
7.72527e-06
9.62303e-09
7.72417e-06
9.69733e-09
7.72318e-06
1.0663e-08
7.72192e-06
1.08504e-08
7.72064e-06
1.17702e-08
7.71908e-06
1.23255e-08
7.71762e-06
1.32481e-08
7.71618e-06
1.37284e-08
7.71496e-06
1.43012e-08
7.71379e-06
1.45942e-08
7.7128e-06
1.49694e-08
7.71197e-06
1.5065e-08
7.71139e-06
1.52065e-08
7.71113e-06
1.50005e-08
7.71127e-06
1.48589e-08
7.71172e-06
1.44978e-08
7.71247e-06
1.41811e-08
7.71336e-06
1.37163e-08
7.71433e-06
1.32749e-08
7.71516e-06
1.26753e-08
7.71533e-06
1.21862e-08
1.12817e-08
7.7148e-06
8.35247e-06
-3.18791e-08
8.35636e-06
1.54185e-08
8.35237e-06
-6.14557e-09
8.35494e-06
5.71109e-09
8.35225e-06
1.74868e-10
8.35303e-06
1.08358e-09
8.35242e-06
4.74288e-09
8.35126e-06
4.96135e-09
8.35122e-06
6.77093e-09
8.35041e-06
6.58712e-09
8.35015e-06
7.44448e-09
8.34913e-06
6.68641e-09
8.34853e-06
7.49876e-09
8.3473e-06
6.81414e-09
8.34652e-06
7.97046e-09
8.3453e-06
8.06223e-09
8.34444e-06
9.16375e-09
8.34325e-06
9.5534e-09
8.34236e-06
1.0507e-08
8.34108e-06
1.09749e-08
8.33996e-06
1.17833e-08
8.3384e-06
1.24141e-08
8.33698e-06
1.31943e-08
8.33541e-06
1.38904e-08
8.33418e-06
1.44837e-08
8.33295e-06
1.49529e-08
8.33193e-06
1.5321e-08
8.33097e-06
1.55533e-08
8.33021e-06
1.57311e-08
8.32959e-06
1.56831e-08
8.32934e-06
1.5461e-08
8.32925e-06
1.5084e-08
8.32942e-06
1.46918e-08
8.32961e-06
1.4308e-08
8.32991e-06
1.38825e-08
8.33024e-06
1.3388e-08
8.33064e-06
1.28756e-08
8.33105e-06
1.22678e-08
8.33162e-06
1.16116e-08
1.07852e-08
8.33212e-06
9.01963e-06
-2.78578e-08
9.02344e-06
1.1606e-08
9.01967e-06
-2.37728e-09
9.02168e-06
3.69613e-09
9.01972e-06
2.14045e-09
9.01924e-06
1.56694e-09
9.01933e-06
4.65342e-09
9.01866e-06
5.63076e-09
9.01824e-06
7.19154e-09
9.0174e-06
7.42679e-09
9.01695e-06
7.89406e-09
9.01599e-06
7.64757e-09
9.01522e-06
8.26434e-09
9.01406e-06
7.9759e-09
9.0131e-06
8.93298e-09
9.01193e-06
9.22921e-09
9.01091e-06
1.01807e-08
9.00974e-06
1.07269e-08
9.00868e-06
1.15604e-08
9.00739e-06
1.22688e-08
9.00602e-06
1.31499e-08
9.00447e-06
1.39655e-08
9.00301e-06
1.46596e-08
9.00164e-06
1.52606e-08
9.00043e-06
1.56945e-08
8.99933e-06
1.60535e-08
8.9984e-06
1.62476e-08
8.99765e-06
1.63055e-08
8.99729e-06
1.60916e-08
8.99712e-06
1.58445e-08
8.99708e-06
1.55055e-08
8.99706e-06
1.51082e-08
8.99706e-06
1.46926e-08
8.99707e-06
1.42891e-08
8.99714e-06
1.38135e-08
8.99728e-06
1.32544e-08
8.99744e-06
1.27127e-08
8.99758e-06
1.2128e-08
8.99766e-06
1.15342e-08
1.09818e-08
8.99746e-06
9.74011e-06
-2.3866e-08
9.74373e-06
7.98376e-09
9.74045e-06
9.10515e-10
9.74169e-06
2.44861e-09
9.74086e-06
2.9761e-09
9.73965e-06
2.77822e-09
9.73937e-06
4.92877e-09
9.73884e-06
6.16344e-09
9.73844e-06
7.59356e-09
9.7376e-06
8.26431e-09
9.73701e-06
8.48346e-09
9.73605e-06
8.60988e-09
9.73517e-06
9.14253e-09
9.73404e-06
9.10841e-09
9.73297e-06
1.00011e-08
9.7318e-06
1.03968e-08
9.73066e-06
1.13225e-08
9.7294e-06
1.19833e-08
9.72804e-06
1.29176e-08
9.72648e-06
1.38334e-08
9.72497e-06
1.46563e-08
9.72358e-06
1.5362e-08
9.72238e-06
1.58567e-08
9.72136e-06
1.62771e-08
9.72059e-06
1.64676e-08
9.72002e-06
1.66239e-08
9.71965e-06
1.66153e-08
9.71937e-06
1.65903e-08
9.71893e-06
1.65256e-08
9.71848e-06
1.62939e-08
9.71807e-06
1.59238e-08
9.71769e-06
1.54839e-08
9.71741e-06
1.4973e-08
9.71731e-06
1.43854e-08
9.71729e-06
1.38352e-08
9.71726e-06
1.32823e-08
9.71726e-06
1.27154e-08
9.71725e-06
1.2135e-08
9.71722e-06
1.15736e-08
1.09832e-08
9.71721e-06
1.05182e-05
-2.00132e-08
1.05215e-05
4.70684e-09
1.05197e-05
2.67977e-09
1.05194e-05
2.79773e-09
1.05188e-05
3.54228e-09
1.05176e-05
4.00058e-09
1.05169e-05
5.58538e-09
1.05164e-05
6.73645e-09
1.05161e-05
7.90757e-09
1.05153e-05
8.96993e-09
1.05146e-05
9.20125e-09
1.05137e-05
9.5787e-09
1.05127e-05
1.01471e-08
1.05115e-05
1.02367e-08
1.05104e-05
1.11689e-08
1.05091e-05
1.16253e-08
1.05079e-05
1.26027e-08
1.05064e-05
1.34145e-08
1.05049e-05
1.44273e-08
1.05034e-05
1.5346e-08
1.05021e-05
1.59889e-08
1.05008e-05
1.66131e-08
1.04997e-05
1.69966e-08
1.04985e-05
1.74172e-08
1.04974e-05
1.75633e-08
1.04964e-05
1.76899e-08
1.04954e-05
1.7545e-08
1.04948e-05
1.72827e-08
1.04945e-05
1.67334e-08
1.04946e-05
1.62706e-08
1.04947e-05
1.57673e-08
1.04949e-05
1.53125e-08
1.0495e-05
1.48417e-08
1.0495e-05
1.43836e-08
1.0495e-05
1.38902e-08
1.04949e-05
1.33325e-08
1.04949e-05
1.27443e-08
1.04949e-05
1.21443e-08
1.04949e-05
1.15393e-08
1.09488e-08
1.0495e-05
1.13585e-05
-1.63494e-08
1.13614e-05
1.85443e-09
1.13603e-05
3.74535e-09
1.13594e-05
3.73055e-09
1.13587e-05
4.19233e-09
1.13579e-05
4.84614e-09
1.13572e-05
6.28176e-09
1.13564e-05
7.47078e-09
1.13559e-05
8.47326e-09
1.13551e-05
9.69981e-09
1.13544e-05
9.98946e-09
1.13534e-05
1.05441e-08
1.13523e-05
1.12513e-08
1.13511e-05
1.13979e-08
1.13498e-05
1.24445e-08
1.13485e-05
1.29865e-08
1.1347e-05
1.4081e-08
1.13454e-05
1.49727e-08
1.13439e-05
1.59266e-08
1.13426e-05
1.66907e-08
1.13414e-05
1.71996e-08
1.13402e-05
1.77571e-08
1.13392e-05
1.80078e-08
1.13384e-05
1.82689e-08
1.13378e-05
1.81956e-08
1.13373e-05
1.81275e-08
1.1337e-05
1.78512e-08
1.13367e-05
1.75501e-08
1.13364e-05
1.70905e-08
1.1336e-05
1.6678e-08
1.13356e-05
1.61335e-08
1.13353e-05
1.55974e-08
1.13351e-05
1.5042e-08
1.1335e-05
1.44947e-08
1.1335e-05
1.3924e-08
1.1335e-05
1.33367e-08
1.1335e-05
1.27292e-08
1.1335e-05
1.21103e-08
1.13351e-05
1.14906e-08
1.08435e-08
1.13352e-05
1.2266e-05
-1.29683e-08
1.22683e-05
-4.83109e-10
1.22677e-05
4.38817e-09
1.22666e-05
4.76973e-09
1.22658e-05
4.99343e-09
1.2265e-05
5.66078e-09
1.22643e-05
7.00297e-09
1.22635e-05
8.21894e-09
1.22628e-05
9.15135e-09
1.2262e-05
1.05076e-08
1.22612e-05
1.08452e-08
1.22602e-05
1.15278e-08
1.2259e-05
1.2437e-08
1.22578e-05
1.26536e-08
1.22564e-05
1.38507e-08
1.22548e-05
1.45063e-08
1.22533e-05
1.56416e-08
1.22517e-05
1.65205e-08
1.22504e-05
1.72823e-08
1.22491e-05
1.79241e-08
1.22481e-05
1.82482e-08
1.22472e-05
1.86419e-08
1.22465e-05
1.87425e-08
1.22459e-05
1.88791e-08
1.22453e-05
1.87348e-08
1.22448e-05
1.8688e-08
1.22443e-05
1.83558e-08
1.22438e-05
1.79954e-08
1.22434e-05
1.74884e-08
1.22431e-05
1.69752e-08
1.22429e-05
1.63959e-08
1.22427e-05
1.5791e-08
1.22425e-05
1.51886e-08
1.22424e-05
1.45889e-08
1.22424e-05
1.3971e-08
1.22424e-05
1.33433e-08
1.22424e-05
1.2709e-08
1.22424e-05
1.20711e-08
1.22425e-05
1.14397e-08
1.07986e-08
1.22425e-05
1.32459e-05
-9.92264e-09
1.32476e-05
-2.24133e-09
1.32474e-05
4.67054e-09
1.32464e-05
5.74857e-09
1.32454e-05
5.93828e-09
1.32446e-05
6.53322e-09
1.32438e-05
7.79561e-09
1.3243e-05
9.00652e-09
1.32423e-05
9.87115e-09
1.32414e-05
1.13637e-08
1.32405e-05
1.17912e-08
1.32394e-05
1.25483e-08
1.32382e-05
1.36983e-08
1.32368e-05
1.40189e-08
1.32353e-05
1.53965e-08
1.32336e-05
1.61427e-08
1.32321e-05
1.71613e-08
1.32307e-05
1.78986e-08
1.32295e-05
1.84776e-08
1.32284e-05
1.90624e-08
1.32273e-05
1.93191e-08
1.32263e-05
1.96755e-08
1.32253e-05
1.97121e-08
1.32244e-05
1.97647e-08
1.32237e-05
1.9461e-08
1.32233e-05
1.90833e-08
1.32231e-05
1.85854e-08
1.3223e-05
1.81238e-08
1.32229e-05
1.75809e-08
1.32228e-05
1.70638e-08
1.32227e-05
1.64965e-08
1.32225e-05
1.59374e-08
1.32224e-05
1.53091e-08
1.32223e-05
1.46581e-08
1.32223e-05
1.3994e-08
1.32223e-05
1.33306e-08
1.32224e-05
1.26688e-08
1.32224e-05
1.20125e-08
1.32225e-05
1.13751e-08
1.07082e-08
1.32226e-05
1.43041e-05
-7.31217e-09
1.43051e-05
-3.20575e-09
1.43052e-05
4.56517e-09
1.43044e-05
6.5685e-09
1.43034e-05
6.91988e-09
1.43024e-05
7.5157e-09
1.43015e-05
8.69737e-09
1.43006e-05
9.87505e-09
1.42999e-05
1.06334e-08
1.4299e-05
1.22398e-08
1.4298e-05
1.27999e-08
1.42969e-05
1.36037e-08
1.42955e-05
1.51269e-08
1.42939e-05
1.56088e-08
1.42923e-05
1.69991e-08
1.42907e-05
1.7718e-08
1.42894e-05
1.85139e-08
1.42881e-05
1.91576e-08
1.4287e-05
1.96077e-08
1.4286e-05
2.0052e-08
1.42852e-05
2.01348e-08
1.42845e-05
2.03294e-08
1.4284e-05
2.02086e-08
1.42836e-05
2.01672e-08
1.42832e-05
1.98721e-08
1.42827e-05
1.96356e-08
1.42821e-05
1.91293e-08
1.42817e-05
1.86044e-08
1.42813e-05
1.79642e-08
1.4281e-05
1.73363e-08
1.42808e-05
1.66518e-08
1.42808e-05
1.60035e-08
1.42807e-05
1.53384e-08
1.42807e-05
1.4671e-08
1.42808e-05
1.39785e-08
1.42808e-05
1.32895e-08
1.42809e-05
1.26056e-08
1.42809e-05
1.19322e-08
1.4281e-05
1.12745e-08
1.06076e-08
1.42811e-05
1.54469e-05
-5.16986e-09
1.54464e-05
-2.70927e-09
1.54473e-05
3.65254e-09
1.54469e-05
6.96964e-09
1.54459e-05
7.93492e-09
1.54448e-05
8.6064e-09
1.54437e-05
9.72661e-09
1.54427e-05
1.08806e-08
1.54418e-05
1.15278e-08
1.54408e-05
1.32505e-08
1.54395e-05
1.41117e-08
1.54382e-05
1.48819e-08
1.54367e-05
1.66547e-08
1.54352e-05
1.71015e-08
1.54339e-05
1.83101e-08
1.54326e-05
1.90034e-08
1.54314e-05
1.97308e-08
1.54303e-05
2.02917e-08
1.54292e-05
2.06419e-08
1.54283e-05
2.10264e-08
1.54273e-05
2.10521e-08
1.54265e-05
2.11854e-08
1.54257e-05
2.09626e-08
1.54251e-05
2.08018e-08
1.54246e-05
2.03355e-08
1.54244e-05
1.98573e-08
1.54243e-05
1.92673e-08
1.54242e-05
1.87171e-08
1.54241e-05
1.80742e-08
1.5424e-05
1.74362e-08
1.54239e-05
1.67435e-08
1.54238e-05
1.60543e-08
1.54238e-05
1.53439e-08
1.54238e-05
1.46358e-08
1.54239e-05
1.39214e-08
1.5424e-05
1.32122e-08
1.54241e-05
1.25111e-08
1.54242e-05
1.1823e-08
1.54243e-05
1.1154e-08
1.04886e-08
1.54244e-05
1.66808e-05
-3.49577e-09
1.66798e-05
-1.70798e-09
1.66805e-05
2.89274e-09
1.66804e-05
7.10471e-09
1.66795e-05
8.84467e-09
1.66784e-05
9.74159e-09
1.66772e-05
1.08669e-08
1.6676e-05
1.21427e-08
1.66748e-05
1.27223e-08
1.66735e-05
1.44829e-08
1.66721e-05
1.55e-08
1.6671e-05
1.60732e-08
1.66697e-05
1.79089e-08
1.66684e-05
1.84508e-08
1.66671e-05
1.95268e-08
1.66659e-05
2.02047e-08
1.66648e-05
2.0871e-08
1.66637e-05
2.13846e-08
1.66627e-05
2.16187e-08
1.66618e-05
2.19524e-08
1.6661e-05
2.18284e-08
1.66604e-05
2.18284e-08
1.66599e-05
2.1481e-08
1.66594e-05
2.12201e-08
1.66591e-05
2.06984e-08
1.66587e-05
2.01936e-08
1.66585e-05
1.95127e-08
1.66584e-05
1.88532e-08
1.66583e-05
1.81465e-08
1.66583e-05
1.7468e-08
1.66582e-05
1.67562e-08
1.66583e-05
1.60386e-08
1.66583e-05
1.52997e-08
1.66584e-05
1.45623e-08
1.66585e-05
1.38276e-08
1.66586e-05
1.30999e-08
1.66587e-05
1.23877e-08
1.66588e-05
1.169e-08
1.6659e-05
1.10167e-08
1.03443e-08
1.66591e-05
1.8013e-05
-2.12164e-09
1.80121e-05
-7.56474e-10
1.8012e-05
2.94037e-09
1.80122e-05
6.96283e-09
1.80116e-05
9.45807e-09
1.80105e-05
1.08155e-08
1.80093e-05
1.20563e-08
1.80079e-05
1.35289e-08
1.80066e-05
1.40451e-08
1.80054e-05
1.57061e-08
1.80039e-05
1.69166e-08
1.80027e-05
1.73104e-08
1.80015e-05
1.90954e-08
1.80002e-05
1.97489e-08
1.7999e-05
2.07004e-08
1.79979e-05
2.1341e-08
1.79969e-05
2.19175e-08
1.79958e-05
2.2426e-08
1.79949e-05
2.2515e-08
1.79941e-05
2.27861e-08
1.79934e-05
2.2565e-08
1.79927e-05
2.2495e-08
1.79921e-05
2.20431e-08
1.79917e-05
2.1623e-08
1.79915e-05
2.09269e-08
1.79914e-05
2.02811e-08
1.79914e-05
1.95447e-08
1.79914e-05
1.88618e-08
1.79914e-05
1.81488e-08
1.79914e-05
1.7455e-08
1.79914e-05
1.67183e-08
1.79915e-05
1.59694e-08
1.79916e-05
1.52063e-08
1.79917e-05
1.44442e-08
1.79918e-05
1.3696e-08
1.7992e-05
1.29538e-08
1.79921e-05
1.22346e-08
1.79923e-05
1.15295e-08
1.79925e-05
1.08542e-08
1.01809e-08
1.79926e-05
1.94516e-05
-1.0569e-09
1.94506e-05
2.22052e-10
1.94501e-05
3.51429e-09
1.94502e-05
6.86954e-09
1.94498e-05
9.77288e-09
1.94489e-05
1.17534e-08
1.94477e-05
1.32177e-08
1.94464e-05
1.4907e-08
1.94449e-05
1.54715e-08
1.94437e-05
1.69356e-08
1.94423e-05
1.83516e-08
1.9441e-05
1.86081e-08
1.94398e-05
2.02407e-08
1.94386e-05
2.09841e-08
1.94375e-05
2.1829e-08
1.94364e-05
2.24261e-08
1.94354e-05
2.2856e-08
1.94345e-05
2.33594e-08
1.94337e-05
2.33179e-08
1.9433e-05
2.34795e-08
1.94324e-05
2.31515e-08
1.9432e-05
2.29242e-08
1.94317e-05
2.23672e-08
1.94315e-05
2.18362e-08
1.94313e-05
2.10991e-08
1.94312e-05
2.03821e-08
1.94311e-05
1.96125e-08
1.94311e-05
1.88773e-08
1.94311e-05
1.81407e-08
1.94312e-05
1.73909e-08
1.94313e-05
1.66284e-08
1.94314e-05
1.58424e-08
1.94315e-05
1.5068e-08
1.94317e-05
1.42883e-08
1.94319e-05
1.35293e-08
1.9432e-05
1.27765e-08
1.94322e-05
1.20531e-08
1.94324e-05
1.13444e-08
1.94326e-05
1.06696e-08
9.99833e-09
1.94328e-05
2.1005e-05
-2.4982e-10
2.10039e-05
1.28248e-09
2.10033e-05
4.13344e-09
2.1003e-05
7.19961e-09
2.10028e-05
1.00064e-08
2.10021e-05
1.24481e-08
2.10011e-05
1.42044e-08
2.09998e-05
1.61838e-08
2.09983e-05
1.69417e-08
2.09971e-05
1.81953e-08
2.09956e-05
1.97952e-08
2.09942e-05
1.99794e-08
2.09931e-05
2.1349e-08
2.0992e-05
2.21471e-08
2.09909e-05
2.28741e-08
2.09899e-05
2.34329e-08
2.09891e-05
2.36815e-08
2.09883e-05
2.41425e-08
2.09876e-05
2.40044e-08
2.09871e-05
2.40274e-08
2.09866e-05
2.36016e-08
2.09863e-05
2.32323e-08
2.09861e-05
2.25865e-08
2.0986e-05
2.19342e-08
2.0986e-05
2.11528e-08
2.09859e-05
2.03865e-08
2.09859e-05
1.96178e-08
2.0986e-05
1.88444e-08
2.0986e-05
1.80732e-08
2.09862e-05
1.72745e-08
2.09863e-05
1.64849e-08
2.09865e-05
1.56791e-08
2.09866e-05
1.48884e-08
2.09868e-05
1.4094e-08
2.0987e-05
1.33268e-08
2.09873e-05
1.25681e-08
2.09875e-05
1.1843e-08
2.09877e-05
1.11345e-08
2.09879e-05
1.04621e-08
9.7946e-09
2.09881e-05
2.26823e-05
3.5961e-10
2.26813e-05
2.2996e-09
2.26805e-05
4.88993e-09
2.26799e-05
7.79573e-09
2.26796e-05
1.0353e-08
2.2679e-05
1.30033e-08
2.26783e-05
1.49922e-08
2.26772e-05
1.72509e-08
2.26758e-05
1.83256e-08
2.26746e-05
1.94206e-08
2.26732e-05
2.12119e-08
2.26717e-05
2.14142e-08
2.26706e-05
2.24534e-08
2.26695e-05
2.32378e-08
2.26686e-05
2.38118e-08
2.26677e-05
2.43196e-08
2.2667e-05
2.43902e-08
2.26664e-05
2.47408e-08
2.26659e-05
2.45446e-08
2.26655e-05
2.44123e-08
2.26652e-05
2.38887e-08
2.2665e-05
2.3377e-08
2.2665e-05
2.26588e-08
2.2665e-05
2.19306e-08
2.2665e-05
2.11343e-08
2.2665e-05
2.03461e-08
2.26651e-05
1.95538e-08
2.26652e-05
1.87442e-08
2.26653e-05
1.79408e-08
2.26655e-05
1.71083e-08
2.26657e-05
1.62964e-08
2.26659e-05
1.54707e-08
2.26661e-05
1.46652e-08
2.26663e-05
1.38612e-08
2.26666e-05
1.30879e-08
2.26668e-05
1.2328e-08
2.26671e-05
1.16033e-08
2.26673e-05
1.08986e-08
2.26675e-05
1.02302e-08
9.57029e-09
2.26678e-05
2.44935e-05
8.52439e-10
2.44926e-05
3.18213e-09
2.44917e-05
5.77859e-09
2.44909e-05
8.57779e-09
2.44903e-05
1.09957e-08
2.44897e-05
1.35965e-08
2.4489e-05
1.56094e-08
2.44883e-05
1.79863e-08
2.44871e-05
1.95397e-08
2.4486e-05
2.05631e-08
2.44847e-05
2.2499e-08
2.44833e-05
2.28293e-08
2.44822e-05
2.35244e-08
2.44812e-05
2.42022e-08
2.44804e-05
2.46044e-08
2.44797e-05
2.50488e-08
2.44791e-05
2.4966e-08
2.44787e-05
2.51331e-08
2.44784e-05
2.48753e-08
2.44782e-05
2.46133e-08
2.44781e-05
2.39976e-08
2.44781e-05
2.3372e-08
2.44781e-05
2.26214e-08
2.44782e-05
2.18796e-08
2.44782e-05
2.10756e-08
2.44783e-05
2.0249e-08
2.44785e-05
1.94177e-08
2.44786e-05
1.85714e-08
2.44788e-05
1.77371e-08
2.44791e-05
1.68885e-08
2.44793e-05
1.60534e-08
2.44796e-05
1.52089e-08
2.44798e-05
1.43917e-08
2.44801e-05
1.35908e-08
2.44804e-05
1.28093e-08
2.44807e-05
1.20522e-08
2.44809e-05
1.13324e-08
2.44812e-05
1.06416e-08
2.44814e-05
9.98218e-09
9.31911e-09
2.44817e-05
2.64492e-05
1.23535e-09
2.64484e-05
3.96391e-09
2.64475e-05
6.68786e-09
2.64466e-05
9.51155e-09
2.64457e-05
1.18688e-08
2.64448e-05
1.45178e-08
2.64438e-05
1.65414e-08
2.64431e-05
1.87059e-08
2.64422e-05
2.04814e-08
2.64413e-05
2.14321e-08
2.64405e-05
2.32958e-08
2.64394e-05
2.39106e-08
2.64385e-05
2.44367e-08
2.64377e-05
2.49976e-08
2.64371e-05
2.52448e-08
2.64366e-05
2.55556e-08
2.64362e-05
2.53464e-08
2.6436e-05
2.53038e-08
2.64359e-05
2.4959e-08
2.64359e-05
2.46e-08
2.6436e-05
2.39865e-08
2.6436e-05
2.33144e-08
2.64361e-05
2.25567e-08
2.64362e-05
2.17412e-08
2.64364e-05
2.09059e-08
2.64366e-05
2.00517e-08
2.64368e-05
1.91935e-08
2.64371e-05
1.83188e-08
2.64373e-05
1.74576e-08
2.64376e-05
1.659e-08
2.64379e-05
1.57426e-08
2.64383e-05
1.48961e-08
2.64386e-05
1.40767e-08
2.64389e-05
1.32697e-08
2.64392e-05
1.24971e-08
2.64395e-05
1.17458e-08
2.64398e-05
1.1032e-08
2.64401e-05
1.03439e-08
2.64404e-05
9.69296e-09
9.05647e-09
2.64407e-05
2.8561e-05
1.53738e-09
2.85603e-05
4.68577e-09
2.85594e-05
7.53554e-09
2.85585e-05
1.04802e-08
2.85575e-05
1.28246e-08
2.85566e-05
1.5455e-08
2.85556e-05
1.75719e-08
2.85547e-05
1.95384e-08
2.85538e-05
2.13611e-08
2.8553e-05
2.22576e-08
2.85525e-05
2.38632e-08
2.85518e-05
2.46043e-08
2.85511e-05
2.50658e-08
2.85506e-05
2.55591e-08
2.85501e-05
2.56895e-08
2.85498e-05
2.58922e-08
2.85495e-05
2.56125e-08
2.85494e-05
2.54006e-08
2.85494e-05
2.49452e-08
2.85496e-05
2.44737e-08
2.85497e-05
2.38022e-08
2.855e-05
2.30634e-08
2.85503e-05
2.2252e-08
2.85506e-05
2.14276e-08
2.85509e-05
2.05901e-08
2.85513e-05
1.97276e-08
2.85516e-05
1.88583e-08
2.85519e-05
1.79696e-08
2.85523e-05
1.70943e-08
2.85527e-05
1.62166e-08
2.85531e-05
1.5364e-08
2.85534e-05
1.45184e-08
2.85538e-05
1.37039e-08
2.85542e-05
1.29054e-08
2.85545e-05
1.21432e-08
2.85549e-05
1.14042e-08
2.85552e-05
1.07034e-08
2.85555e-05
1.00292e-08
2.85558e-05
9.39261e-09
8.79851e-09
2.85561e-05
3.08414e-05
1.77689e-09
3.08408e-05
5.3014e-09
3.084e-05
8.36192e-09
3.08391e-05
1.1424e-08
3.08381e-05
1.38049e-08
3.08372e-05
1.63333e-08
3.08362e-05
1.85204e-08
3.08354e-05
2.03413e-08
3.08347e-05
2.21053e-08
3.0834e-05
2.30058e-08
3.08334e-05
2.43639e-08
3.0833e-05
2.50814e-08
3.08326e-05
2.54615e-08
3.08323e-05
2.58501e-08
3.08321e-05
2.58659e-08
3.08321e-05
2.59353e-08
3.08321e-05
2.56078e-08
3.08322e-05
2.52786e-08
3.08324e-05
2.47396e-08
3.08327e-05
2.41805e-08
3.0833e-05
2.34731e-08
3.08334e-05
2.27055e-08
3.08338e-05
2.18713e-08
3.08342e-05
2.10208e-08
3.08346e-05
2.01639e-08
3.0835e-05
1.9291e-08
3.08355e-05
1.84141e-08
3.08359e-05
1.75199e-08
3.08364e-05
1.6638e-08
3.08368e-05
1.57577e-08
3.08373e-05
1.49054e-08
3.08377e-05
1.40666e-08
3.08382e-05
1.32621e-08
3.08386e-05
1.24784e-08
3.0839e-05
1.17329e-08
3.08394e-05
1.10249e-08
3.08398e-05
1.0342e-08
3.08401e-05
9.68563e-09
3.08404e-05
9.06601e-09
8.48659e-09
3.08408e-05
3.3304e-05
1.9266e-09
3.33034e-05
5.89482e-09
3.33026e-05
9.09555e-09
3.33017e-05
1.23066e-08
3.33008e-05
1.47362e-08
3.33e-05
1.71655e-08
3.32992e-05
1.92953e-08
3.32985e-05
2.10663e-08
3.32979e-05
2.27306e-08
3.32973e-05
2.36059e-08
3.32968e-05
2.47989e-08
3.32964e-05
2.54655e-08
3.32962e-05
2.57307e-08
3.3296e-05
2.60127e-08
3.3296e-05
2.59105e-08
3.32961e-05
2.58256e-08
3.32963e-05
2.53927e-08
3.32966e-05
2.49411e-08
3.32971e-05
2.42954e-08
3.32976e-05
2.36328e-08
3.32982e-05
2.28646e-08
3.32989e-05
2.20485e-08
3.32995e-05
2.12323e-08
3.33001e-05
2.04202e-08
3.33007e-05
1.95928e-08
3.33012e-05
1.87569e-08
3.33018e-05
1.78789e-08
3.33023e-05
1.69835e-08
3.33028e-05
1.61007e-08
3.33034e-05
1.5207e-08
3.33039e-05
1.43548e-08
3.33045e-05
1.35314e-08
3.3305e-05
1.27461e-08
3.33055e-05
1.19857e-08
3.33059e-05
1.1263e-08
3.33064e-05
1.05674e-08
3.33068e-05
9.90882e-09
3.33072e-05
9.27854e-09
3.33076e-05
8.68384e-09
8.10802e-09
3.3308e-05
3.5963e-05
2.06378e-09
3.59625e-05
6.4194e-09
3.59617e-05
9.83241e-09
3.5961e-05
1.30809e-08
3.59602e-05
1.55397e-08
3.59594e-05
1.78885e-08
3.59588e-05
1.99174e-08
3.59582e-05
2.16408e-08
3.59577e-05
2.32223e-08
3.59574e-05
2.39922e-08
3.59572e-05
2.49827e-08
3.59571e-05
2.5575e-08
3.59571e-05
2.56754e-08
3.59573e-05
2.57881e-08
3.59577e-05
2.5554e-08
3.59582e-05
2.53184e-08
3.59588e-05
2.47772e-08
3.59595e-05
2.42337e-08
3.59603e-05
2.35498e-08
3.5961e-05
2.28899e-08
3.59617e-05
2.22024e-08
3.59622e-05
2.15212e-08
3.59627e-05
2.07274e-08
3.59632e-05
1.98928e-08
3.59638e-05
1.90147e-08
3.59645e-05
1.80983e-08
3.59652e-05
1.71547e-08
3.59659e-05
1.62629e-08
3.59666e-05
1.54193e-08
3.59672e-05
1.4608e-08
3.59678e-05
1.38044e-08
3.59683e-05
1.30193e-08
3.59687e-05
1.22674e-08
3.59692e-05
1.15388e-08
3.59696e-05
1.08448e-08
3.597e-05
1.01767e-08
3.59704e-05
9.54316e-09
3.59707e-05
8.9366e-09
3.5971e-05
8.36326e-09
7.82544e-09
3.59713e-05
3.88347e-05
1.79929e-09
3.88333e-05
7.81435e-09
3.88332e-05
9.94021e-09
3.88322e-05
1.40897e-08
3.88321e-05
1.56119e-08
3.88313e-05
1.87733e-08
3.88311e-05
2.00453e-08
3.88304e-05
2.23408e-08
3.88303e-05
2.33963e-08
3.88297e-05
2.45841e-08
3.88297e-05
2.4971e-08
3.88293e-05
2.59006e-08
3.88294e-05
2.56315e-08
3.88293e-05
2.58961e-08
3.88295e-05
2.53581e-08
3.88296e-05
2.52289e-08
3.88299e-05
2.44438e-08
3.88302e-05
2.39198e-08
3.88308e-05
2.29739e-08
3.88314e-05