/*--------------------------------*- C++ -*----------------------------------*\
| =========                 |                                                 |
| \\      /  F ield         | OpenFOAM: The Open Source CFD Toolbox           |
|  \\    /   O peration     | Version:  2312                                  |
|   \\  /    A nd           | Website:  www.openfoam.com                      |
|    \\/     M anipulation  |                                                 |
\*---------------------------------------------------------------------------*/
FoamFile
{
    version     2.0;
    format      ascii;
    arch        "LSB;label=32;scalar=64";
    class       volVectorField;
    location    "0.7";
    object      U;
}
// * * * * * * * * * * * * * * * * * * * * * * * * * * * * * * * * * * * * * //

dimensions      [0 1 -1 0 0 0 0];

internalField   nonuniform List<vector> 
5600
(
(0.971768 -0.000847986 0)
(1.02745 0.000744929 0)
(0.974321 -0.000661687 0)
(1.02491 0.000577094 0)
(0.976942 -0.000576457 0)
(1.02257 0.000465717 0)
(0.979282 -0.000406446 0)
(1.02024 0.000414254 0)
(0.98136 -0.000296148 0)
(1.01793 0.000334223 0)
(0.983158 -0.000206695 0)
(1.01576 0.000258591 0)
(0.984851 -0.000180863 0)
(1.0138 0.000185364 0)
(0.98637 -0.000135444 0)
(1.01198 0.000163879 0)
(0.987713 -8.28804e-05 0)
(1.01028 0.000177949 0)
(0.988838 -1.60542e-05 0)
(1.00868 0.000210981 0)
(0.989791 3.98709e-05 0)
(1.00717 0.000240423 0)
(0.990533 9.62874e-05 0)
(1.00573 0.000275629 0)
(0.991115 0.000160105 0)
(1.00439 0.000317538 0)
(0.991546 0.000224445 0)
(1.00311 0.00036072 0)
(0.991835 0.000284714 0)
(1.0019 0.000403387 0)
(0.991987 0.000348302 0)
(1.00073 0.000471727 0)
(0.991995 0.00047446 0)
(0.999588 0.000660555 0)
(0.991896 0.000759776 0)
(0.998517 0.00101352 0)
(0.991757 0.00118638 0)
(0.997532 0.00152884 0)
(0.991645 0.00187438 0)
(0.996994 0.00243833 0)
(0.987366 -0.000867766 0)
(1.01107 0.00073595 0)
(0.989849 -0.000651926 0)
(1.00904 0.00055959 0)
(0.991993 -0.000565436 0)
(1.00737 0.000442776 0)
(0.993698 -0.000376367 0)
(1.00585 0.00039326 0)
(0.995037 -0.000245016 0)
(1.00438 0.000318811 0)
(0.995891 -0.000145407 0)
(1.00313 0.000237105 0)
(0.996634 -0.000122343 0)
(1.00217 0.00016875 0)
(0.997136 -7.4372e-05 0)
(1.00135 0.000158324 0)
(0.997489 -1.81926e-05 0)
(1.00062 0.000189201 0)
(0.997664 5.74418e-05 0)
(0.999948 0.000241842 0)
(0.997706 0.000128232 0)
(0.999314 0.000293402 0)
(0.997594 0.000200956 0)
(0.998704 0.000353855 0)
(0.997386 0.000285869 0)
(0.998121 0.000424528 0)
(0.997095 0.000376421 0)
(0.997543 0.000502182 0)
(0.996733 0.000473919 0)
(0.996965 0.000597649 0)
(0.996315 0.000603932 0)
(0.996395 0.000756501 0)
(0.995881 0.000841323 0)
(0.995863 0.00108191 0)
(0.995453 0.00127891 0)
(0.995367 0.00160586 0)
(0.995081 0.00189162 0)
(0.995054 0.00232782 0)
(0.99506 0.00279742 0)
(0.995418 0.00345524 0)
(0.996923 -0.00078018 0)
(1.00201 0.000623023 0)
(0.997728 -0.000551476 0)
(1.00132 0.000453826 0)
(0.998271 -0.000466816 0)
(1.00082 0.000337446 0)
(0.998686 -0.000278933 0)
(1.00044 0.000289882 0)
(0.99897 -0.00014163 0)
(0.999953 0.000233346 0)
(0.99889 -4.75746e-05 0)
(0.99953 0.000153774 0)
(0.998851 -3.61775e-05 0)
(0.999255 0.000101285 0)
(0.998729 6.22115e-06 0)
(0.998982 9.90093e-05 0)
(0.99859 5.61923e-05 0)
(0.998683 0.000140079 0)
(0.998383 0.000119837 0)
(0.998367 0.000203367 0)
(0.998128 0.000195679 0)
(0.998015 0.000271065 0)
(0.997789 0.000275405 0)
(0.997627 0.000346121 0)
(0.99741 0.000361554 0)
(0.997217 0.000429996 0)
(0.996992 0.000455901 0)
(0.996776 0.000525487 0)
(0.996543 0.0005669 0)
(0.996315 0.000654915 0)
(0.996079 0.000742509 0)
(0.995854 0.000887117 0)
(0.995632 0.00103586 0)
(0.995422 0.00122127 0)
(0.99521 0.00140645 0)
(0.99502 0.00163365 0)
(0.994868 0.00187997 0)
(0.994803 0.0021756 0)
(0.994876 0.0024908 0)
(0.995205 0.00283272 0)
(0.999538 -0.000771889 0)
(0.99984 0.000609136 0)
(0.999521 -0.000528408 0)
(0.999757 0.000447372 0)
(0.999433 -0.000445651 0)
(0.999577 0.000321621 0)
(0.99942 -0.000254922 0)
(0.999494 0.000276161 0)
(0.999392 -0.000102715 0)
(0.999289 0.000236258 0)
(0.999144 -5.77027e-06 0)
(0.999053 0.000155661 0)
(0.998918 -4.11798e-06 0)
(0.998853 0.000109243 0)
(0.998704 4.26602e-05 0)
(0.998617 0.000115186 0)
(0.998481 9.58553e-05 0)
(0.998343 0.000168147 0)
(0.998209 0.000170041 0)
(0.998056 0.000248084 0)
(0.997922 0.000256069 0)
(0.997737 0.000332776 0)
(0.99758 0.000352142 0)
(0.997379 0.000427106 0)
(0.997209 0.000458398 0)
(0.996992 0.000534613 0)
(0.996799 0.000580501 0)
(0.996569 0.000665803 0)
(0.996364 0.000735501 0)
(0.99614 0.000846207 0)
(0.995945 0.000960253 0)
(0.995739 0.00112376 0)
(0.99555 0.00129402 0)
(0.995355 0.00149403 0)
(0.995184 0.00169727 0)
(0.99504 0.00193857 0)
(0.99496 0.00220065 0)
(0.994971 0.00250435 0)
(0.99513 0.00282555 0)
(0.995528 0.00316816 0)
(0.999958 -0.000702993 0)
(0.999544 0.000532307 0)
(0.999743 -0.000452064 0)
(0.999612 0.000377377 0)
(0.999582 -0.000361684 0)
(0.999447 0.000245229 0)
(0.999495 -0.000177653 0)
(0.999372 0.000202112 0)
(0.999383 -2.7107e-05 0)
(0.999233 0.000179844 0)
(0.999165 6.66795e-05 0)
(0.999064 0.000117813 0)
(0.998916 5.5118e-05 0)
(0.998826 8.97323e-05 0)
(0.99871 7.89166e-05 0)
(0.998572 0.000115211 0)
(0.998453 0.00013031 0)
(0.998287 0.000180105 0)
(0.998141 0.000209177 0)
(0.997985 0.000267345 0)
(0.997844 0.00030113 0)
(0.99767 0.00036391 0)
(0.997521 0.000406108 0)
(0.997332 0.000474463 0)
(0.997176 0.000526674 0)
(0.996968 0.000602988 0)
(0.996793 0.000671247 0)
(0.996572 0.000765537 0)
(0.996388 0.000865325 0)
(0.996176 0.000999286 0)
(0.996002 0.0011426 0)
(0.995815 0.00130713 0)
(0.995649 0.00147371 0)
(0.995476 0.00165787 0)
(0.995333 0.00184858 0)
(0.995219 0.00205858 0)
(0.99517 0.00227617 0)
(0.995206 0.00250642 0)
(0.995377 0.00273501 0)
(0.995771 0.0029611 0)
(1.00001 -0.00068596 0)
(0.99953 0.000511575 0)
(0.999745 -0.000422886 0)
(0.99962 0.000359038 0)
(0.999614 -0.000323705 0)
(0.999447 0.000220527 0)
(0.99951 -0.000139122 0)
(0.999363 0.000185633 0)
(0.999354 1.1767e-05 0)
(0.999235 0.000170172 0)
(0.999169 0.00010167 0)
(0.9991 0.000121599 0)
(0.998943 8.84612e-05 0)
(0.998832 0.000101788 0)
(0.998742 0.000112779 0)
(0.998585 0.000142409 0)
(0.998468 0.000174922 0)
(0.9983 0.000220261 0)
(0.998137 0.000261463 0)
(0.997981 0.000315059 0)
(0.99783 0.000360809 0)
(0.99766 0.000419216 0)
(0.997517 0.000475645 0)
(0.997336 0.000545991 0)
(0.997192 0.000616102 0)
(0.996996 0.000701694 0)
(0.996834 0.00079265 0)
(0.996632 0.000903587 0)
(0.996468 0.00102698 0)
(0.996285 0.00117723 0)
(0.996129 0.00133943 0)
(0.995958 0.00151094 0)
(0.995803 0.00167908 0)
(0.995652 0.00185539 0)
(0.995528 0.00203529 0)
(0.995442 0.00222475 0)
(0.995415 0.00241553 0)
(0.995477 0.00260858 0)
(0.99567 0.00279697 0)
(0.996087 0.0029814 0)
(1.00001 -0.000621299 0)
(0.999545 0.000441705 0)
(0.999733 -0.000350437 0)
(0.999627 0.000293274 0)
(0.999635 -0.00024333 0)
(0.999458 0.000153146 0)
(0.999509 -6.95239e-05 0)
(0.999377 0.0001305 0)
(0.999345 7.47662e-05 0)
(0.99924 0.000137831 0)
(0.999175 0.000142818 0)
(0.999108 0.000118883 0)
(0.998971 0.000113531 0)
(0.998838 0.000109046 0)
(0.998754 0.000144812 0)
(0.998603 0.000165586 0)
(0.99848 0.000211847 0)
(0.998325 0.00025532 0)
(0.99816 0.000308321 0)
(0.998006 0.000358094 0)
(0.997853 0.000413896 0)
(0.997682 0.000468602 0)
(0.997539 0.000534673 0)
(0.997364 0.000609688 0)
(0.997224 0.000693994 0)
(0.997043 0.000793692 0)
(0.996891 0.000905684 0)
(0.996711 0.00103983 0)
(0.996563 0.00118836 0)
(0.996402 0.00135102 0)
(0.996258 0.00151133 0)
(0.996104 0.00167693 0)
(0.995962 0.00183946 0)
(0.995829 0.00200885 0)
(0.995723 0.00217739 0)
(0.995654 0.00234951 0)
(0.995639 0.00251584 0)
(0.995708 0.00267589 0)
(0.995904 0.00282155 0)
(0.996322 0.00295148 0)
(1.00001 -0.000592822 0)
(0.999565 0.00040876 0)
(0.999726 -0.00030831 0)
(0.999632 0.000259803 0)
(0.999652 -0.000193389 0)
(0.999482 0.000124008 0)
(0.999494 -2.48347e-05 0)
(0.999393 0.000114118 0)
(0.999348 0.000111246 0)
(0.999249 0.000130038 0)
(0.999193 0.000162591 0)
(0.999109 0.000130001 0)
(0.998994 0.000147753 0)
(0.998853 0.000128948 0)
(0.998752 0.000181639 0)
(0.998617 0.000196102 0)
(0.998484 0.000255399 0)
(0.998343 0.000296023 0)
(0.998187 0.000364001 0)
(0.998041 0.000408886 0)
(0.997895 0.000479132 0)
(0.997725 0.0005294 0)
(0.997582 0.000607804 0)
(0.997412 0.000683723 0)
(0.997275 0.000784071 0)
(0.997108 0.000895297 0)
(0.996969 0.00103654 0)
(0.996812 0.00118962 0)
(0.996679 0.00135642 0)
(0.996531 0.00152101 0)
(0.996396 0.00168586 0)
(0.996253 0.00184768 0)
(0.996127 0.00201165 0)
(0.996008 0.00217004 0)
(0.995917 0.00232441 0)
(0.995856 0.00246301 0)
(0.995848 0.00258891 0)
(0.995912 0.002691 0)
(0.996096 0.00277896 0)
(0.996486 0.00285065 0)
(1.00001 -0.000530435 0)
(0.999586 0.000342472 0)
(0.999725 -0.000237435 0)
(0.999635 0.000199666 0)
(0.999664 -0.000122577 0)
(0.99951 7.19627e-05 0)
(0.999487 3.18035e-05 0)
(0.999402 7.93703e-05 0)
(0.999359 0.00015378 0)
(0.999254 0.00012968 0)
(0.999212 0.000181816 0)
(0.999114 0.000134486 0)
(0.999011 0.00018699 0)
(0.998875 0.000141768 0)
(0.998753 0.000223128 0)
(0.998632 0.000216271 0)
(0.998491 0.000306042 0)
(0.998358 0.000324924 0)
(0.998212 0.000424774 0)
(0.998075 0.000449331 0)
(0.99794 0.000550368 0)
(0.997776 0.000584983 0)
(0.997636 0.000692739 0)
(0.997472 0.000760855 0)
(0.997345 0.000896049 0)
(0.997197 0.0010104 0)
(0.997078 0.00118184 0)
(0.996934 0.0013248 0)
(0.99681 0.00150092 0)
(0.996671 0.00164738 0)
(0.99655 0.00182896 0)
(0.996418 0.00199236 0)
(0.996303 0.00219306 0)
(0.996183 0.00237227 0)
(0.996085 0.00257068 0)
(0.996003 0.00272636 0)
(0.995969 0.00288057 0)
(0.996002 0.00297082 0)
(0.996176 0.00301076 0)
(0.996605 0.00288902 0)
(1.00002 -0.000492496 0)
(0.999602 0.000299994 0)
(0.999731 -0.000185506 0)
(0.999637 0.000158462 0)
(0.999674 -7.00264e-05 0)
(0.999534 4.90383e-05 0)
(0.999492 7.33923e-05 0)
(0.999409 7.09935e-05 0)
(0.999377 0.000163427 0)
(0.999258 0.000137986 0)
(0.999231 0.000197495 0)
(0.999121 0.000154933 0)
(0.999028 0.000216737 0)
(0.998896 0.00017416 0)
(0.998766 0.000260482 0)
(0.998649 0.000254973 0)
(0.998511 0.000351052 0)
(0.998376 0.000369607 0)
(0.998242 0.000476408 0)
(0.998108 0.000505218 0)
(0.997988 0.000613583 0)
(0.997829 0.00065848 0)
(0.997701 0.000777656 0)
(0.997546 0.000865775 0)
(0.997439 0.00102183 0)
(0.997301 0.00114722 0)
(0.997193 0.00131342 0)
(0.997054 0.0014439 0)
(0.996947 0.00161195 0)
(0.996823 0.0017536 0)
(0.996733 0.00193347 0)
(0.996635 0.00208941 0)
(0.996562 0.00227611 0)
(0.996471 0.00243015 0)
(0.996392 0.00260183 0)
(0.996304 0.00273607 0)
(0.996236 0.00287786 0)
(0.996138 0.00296138 0)
(0.995961 0.00299775 0)
(0.995544 0.00287256 0)
(1.00002 -0.000431959 0)
(0.999625 0.000236692 0)
(0.999735 -0.000117136 0)
(0.999648 0.00010946 0)
(0.999678 -1.72748e-05 0)
(0.999557 2.01049e-05 0)
(0.999504 9.60428e-05 0)
(0.999419 9.98744e-05 0)
(0.999393 0.000157496 0)
(0.999269 0.00015955 0)
(0.999244 0.000200862 0)
(0.999133 0.000186945 0)
(0.999041 0.000231023 0)
(0.998917 0.000218801 0)
(0.998786 0.000283624 0)
(0.998672 0.000306268 0)
(0.998537 0.000382443 0)
(0.998405 0.000428634 0)
(0.998277 0.000515233 0)
(0.998148 0.000576581 0)
(0.998038 0.000670238 0)
(0.997888 0.000753933 0)
(0.997775 0.000867508 0)
(0.997638 0.00099116 0)
(0.997543 0.00113378 0)
(0.997411 0.00127074 0)
(0.997311 0.00141295 0)
(0.997183 0.00155034 0)
(0.997092 0.00169783 0)
(0.996983 0.00184141 0)
(0.996904 0.001989 0)
(0.996804 0.00211806 0)
(0.996717 0.00223862 0)
(0.996607 0.00233765 0)
(0.996517 0.00243799 0)
(0.996423 0.00252801 0)
(0.996342 0.00261871 0)
(0.996224 0.00268714 0)
(0.996036 0.00274503 0)
(0.995659 0.00278294 0)
(1.00002 -0.000387361 0)
(0.999653 0.00018968 0)
(0.999738 -6.54029e-05 0)
(0.999663 7.51336e-05 0)
(0.999681 2.53778e-05 0)
(0.999577 2.04608e-05 0)
(0.999523 9.60649e-05 0)
(0.999434 0.000119562 0)
(0.999408 0.000167085 0)
(0.999283 0.000180043 0)
(0.999259 0.000212697 0)
(0.999148 0.000216016 0)
(0.999056 0.000255392 0)
(0.998939 0.000260736 0)
(0.99881 0.000319648 0)
(0.9987 0.000354538 0)
(0.99857 0.00042653 0)
(0.998441 0.000484289 0)
(0.998319 0.000566305 0)
(0.998197 0.000644978 0)
(0.998099 0.000743071 0)
(0.997961 0.000852238 0)
(0.997863 0.000974222 0)
(0.997737 0.001105 0)
(0.99765 0.00123652 0)
(0.997524 0.00137408 0)
(0.997434 0.00151254 0)
(0.997316 0.00165209 0)
(0.997234 0.00178317 0)
(0.997131 0.00190258 0)
(0.99705 0.00201062 0)
(0.996943 0.0021088 0)
(0.996857 0.00220587 0)
(0.996763 0.00230409 0)
(0.996695 0.00241029 0)
(0.996615 0.00251404 0)
(0.996533 0.00261473 0)
(0.996396 0.002699 0)
(0.996176 0.00277053 0)
(0.995756 0.00282223 0)
(1.00002 -0.00033014 0)
(0.999682 0.000132534 0)
(0.999742 -3.25041e-06 0)
(0.999681 4.24441e-05 0)
(0.999689 4.97877e-05 0)
(0.999592 4.05885e-05 0)
(0.999543 9.47117e-05 0)
(0.999453 0.000129516 0)
(0.999426 0.000176989 0)
(0.999299 0.00020437 0)
(0.999274 0.000227746 0)
(0.999165 0.000244127 0)
(0.999074 0.000281111 0)
(0.998962 0.000298688 0)
(0.998838 0.000357318 0)
(0.998733 0.00040077 0)
(0.998609 0.000473889 0)
(0.998484 0.000541232 0)
(0.99837 0.000627616 0)
(0.998257 0.000723095 0)
(0.998172 0.000832336 0)
(0.998047 0.000952285 0)
(0.997957 0.00107242 0)
(0.997839 0.00119577 0)
(0.997762 0.00131414 0)
(0.997651 0.00143839 0)
(0.997571 0.0015597 0)
(0.997454 0.00168429 0)
(0.997362 0.00180341 0)
(0.997247 0.00192044 0)
(0.997164 0.00203039 0)
(0.99707 0.00213593 0)
(0.997004 0.00223842 0)
(0.99693 0.00233837 0)
(0.996872 0.00243643 0)
(0.996794 0.00252799 0)
(0.996704 0.00261358 0)
(0.996555 0.00268843 0)
(0.996323 0.00275664 0)
(0.995901 0.00281631 0)
(1.00002 -0.000282529 0)
(0.999717 8.65328e-05 0)
(0.999749 3.23267e-05 0)
(0.999694 3.80467e-05 0)
(0.999703 5.448e-05 0)
(0.99961 6.59517e-05 0)
(0.999563 0.000106921 0)
(0.999474 0.000141714 0)
(0.999448 0.000183847 0)
(0.999318 0.000222184 0)
(0.999293 0.000245391 0)
(0.999187 0.000274702 0)
(0.999097 0.000313034 0)
(0.998989 0.00034054 0)
(0.99887 0.000401217 0)
(0.99877 0.000450766 0)
(0.998653 0.000527811 0)
(0.998535 0.000603615 0)
(0.998433 0.000700619 0)
(0.998331 0.000810134 0)
(0.998256 0.000922533 0)
(0.998136 0.00104162 0)
(0.998052 0.00115409 0)
(0.997938 0.00127483 0)
(0.997865 0.00138821 0)
(0.997757 0.00151009 0)
(0.997683 0.00162149 0)
(0.997581 0.0017354 0)
(0.997513 0.00183891 0)
(0.99742 0.00194677 0)
(0.997347 0.00204897 0)
(0.997251 0.00215395 0)
(0.997179 0.00225337 0)
(0.9971 0.00235201 0)
(0.997042 0.00244428 0)
(0.996964 0.00253241 0)
(0.996875 0.00261365 0)
(0.996728 0.00268963 0)
(0.996497 0.0027599 0)
(0.996079 0.00282552 0)
(1.00002 -0.000232483 0)
(0.999751 4.37062e-05 0)
(0.99976 4.92815e-05 0)
(0.99971 5.26964e-05 0)
(0.999719 6.92675e-05 0)
(0.999627 8.5648e-05 0)
(0.999584 0.000123035 0)
(0.999496 0.000157811 0)
(0.999471 0.000194881 0)
(0.99934 0.000239804 0)
(0.999314 0.000266561 0)
(0.999211 0.000301721 0)
(0.999122 0.000346619 0)
(0.99902 0.000378389 0)
(0.998908 0.000445979 0)
(0.998813 0.000501788 0)
(0.998705 0.00058727 0)
(0.998597 0.000673882 0)
(0.998507 0.000781067 0)
(0.998412 0.000892908 0)
(0.998343 0.000999343 0)
(0.99823 0.00111592 0)
(0.998154 0.00122624 0)
(0.99805 0.00134976 0)
(0.99799 0.00146445 0)
(0.997893 0.00158888 0)
(0.997822 0.00169741 0)
(0.997713 0.00180354 0)
(0.997632 0.00189118 0)
(0.997533 0.00197742 0)
(0.997468 0.00205734 0)
(0.997393 0.00214588 0)
(0.997343 0.00223674 0)
(0.997281 0.002332 0)
(0.99723 0.00242367 0)
(0.997157 0.00251152 0)
(0.997068 0.00259271 0)
(0.996921 0.00266784 0)
(0.99669 0.00273733 0)
(0.996272 0.00280125 0)
(1.00002 -0.000186795 0)
(0.999786 6.03764e-06 0)
(0.999777 6.3278e-05 0)
(0.999724 6.99768e-05 0)
(0.999736 7.89689e-05 0)
(0.999648 9.90961e-05 0)
(0.999606 0.000134705 0)
(0.999519 0.000172123 0)
(0.999497 0.000209105 0)
(0.999365 0.000259736 0)
(0.999339 0.000289084 0)
(0.999241 0.000332234 0)
(0.999151 0.000384926 0)
(0.999056 0.000422051 0)
(0.998949 0.000497893 0)
(0.998863 0.000560531 0)
(0.998766 0.000654458 0)
(0.998667 0.000750511 0)
(0.998587 0.000856335 0)
(0.998495 0.000965186 0)
(0.998434 0.00106633 0)
(0.99833 0.00118027 0)
(0.998265 0.00128558 0)
(0.998169 0.00140169 0)
(0.998114 0.00150468 0)
(0.998016 0.00161615 0)
(0.997941 0.00171518 0)
(0.997833 0.00181862 0)
(0.997759 0.00191174 0)
(0.997673 0.00200796 0)
(0.997622 0.00209901 0)
(0.997563 0.00219298 0)
(0.997525 0.00228361 0)
(0.997473 0.00237336 0)
(0.997426 0.00245828 0)
(0.997355 0.00253871 0)
(0.997265 0.00261361 0)
(0.997117 0.00268273 0)
(0.996885 0.0027471 0)
(0.996467 0.002806 0)
(1.00002 -0.000145977 0)
(0.99982 -2.02797e-05 0)
(0.999799 6.83761e-05 0)
(0.999741 8.53441e-05 0)
(0.999753 9.63179e-05 0)
(0.999668 0.000115231 0)
(0.999631 0.000151661 0)
(0.999544 0.000190998 0)
(0.999524 0.000227867 0)
(0.999392 0.000282747 0)
(0.999366 0.000315461 0)
(0.999273 0.000361833 0)
(0.999185 0.000424229 0)
(0.999097 0.00046674 0)
(0.998999 0.000552255 0)
(0.998921 0.000624253 0)
(0.998836 0.000723671 0)
(0.998743 0.000822538 0)
(0.99867 0.000922495 0)
(0.998583 0.00102962 0)
(0.998529 0.00112837 0)
(0.998431 0.00124331 0)
(0.998371 0.00134784 0)
(0.99828 0.00146289 0)
(0.998232 0.00156094 0)
(0.998148 0.00166491 0)
(0.998087 0.00175655 0)
(0.997989 0.0018544 0)
(0.997918 0.00194511 0)
(0.997837 0.00203967 0)
(0.997789 0.0021292 0)
(0.997736 0.00221908 0)
(0.997703 0.00230417 0)
(0.997657 0.00238646 0)
(0.997614 0.00246392 0)
(0.997545 0.00253679 0)
(0.997457 0.00260527 0)
(0.99731 0.00266861 0)
(0.997078 0.00272823 0)
(0.996661 0.0027828 0)
(1.00002 -0.000108761 0)
(0.999853 -4.3487e-05 0)
(0.999826 7.25445e-05 0)
(0.999758 0.000102589 0)
(0.999771 0.000113118 0)
(0.99969 0.000133499 0)
(0.999654 0.000168254 0)
(0.999569 0.000207557 0)
(0.999554 0.000243629 0)
(0.999422 0.000303592 0)
(0.999396 0.000341093 0)
(0.999312 0.00039273 0)
(0.999224 0.000466266 0)
(0.999144 0.000517988 0)
(0.999056 0.000612925 0)
(0.998984 0.000693498 0)
(0.998909 0.000789711 0)
(0.99882 0.000886022 0)
(0.998756 0.000982232 0)
(0.998675 0.00108737 0)
(0.998632 0.00118406 0)
(0.998546 0.00129645 0)
(0.998497 0.00139768 0)
(0.99841 0.00151043 0)
(0.998361 0.00160707 0)
(0.998271 0.00170927 0)
(0.998207 0.00179699 0)
(0.998116 0.00188725 0)
(0.998059 0.00196993 0)
(0.997993 0.00205711 0)
(0.997958 0.00214065 0)
(0.997914 0.0022254 0)
(0.997887 0.00230546 0)
(0.997845 0.00238302 0)
(0.997804 0.00245542 0)
(0.997738 0.00252377 0)
(0.997651 0.00258745 0)
(0.997505 0.00264681 0)
(0.997274 0.00270226 0)
(0.996858 0.00275352 0)
(1.00002 -7.78005e-05 0)
(0.999883 -4.55302e-05 0)
(0.999858 6.3175e-05 0)
(0.999779 0.00011187 0)
(0.999789 0.000131135 0)
(0.99971 0.000152351 0)
(0.99968 0.000188285 0)
(0.999596 0.000228869 0)
(0.999584 0.000263697 0)
(0.999455 0.000327544 0)
(0.999429 0.000373171 0)
(0.999355 0.000426954 0)
(0.99927 0.000515621 0)
(0.999199 0.000573827 0)
(0.999122 0.000670743 0)
(0.999052 0.000754067 0)
(0.998985 0.000847244 0)
(0.998902 0.00094248 0)
(0.998846 0.00103783 0)
(0.998771 0.0011435 0)
(0.998736 0.00123712 0)
(0.998656 0.00134564 0)
(0.998613 0.00143947 0)
(0.998533 0.00154536 0)
(0.998492 0.00163624 0)
(0.998414 0.00173583 0)
(0.998357 0.00182437 0)
(0.998271 0.00191738 0)
(0.998216 0.00200121 0)
(0.998156 0.00208639 0)
(0.998128 0.00216552 0)
(0.998092 0.00224457 0)
(0.998071 0.00231882 0)
(0.998033 0.00239058 0)
(0.997995 0.00245751 0)
(0.99793 0.00252052 0)
(0.997844 0.00257924 0)
(0.997701 0.00263381 0)
(0.99747 0.00268487 0)
(0.997054 0.00273193 0)
(1.00002 -5.51142e-05 0)
(0.999908 -2.96847e-05 0)
(0.999886 4.65572e-05 0)
(0.999799 0.000115018 0)
(0.999807 0.000148241 0)
(0.999731 0.000174717 0)
(0.999702 0.000211061 0)
(0.999619 0.000253567 0)
(0.999615 0.000287858 0)
(0.99949 0.000356344 0)
(0.999464 0.000411128 0)
(0.999403 0.000465417 0)
(0.999322 0.000563532 0)
(0.999253 0.000626301 0)
(0.999185 0.000718324 0)
(0.99912 0.0008022 0)
(0.999062 0.000896837 0)
(0.998985 0.000992351 0)
(0.99894 0.00108711 0)
(0.99887 0.0011936 0)
(0.998844 0.00128557 0)
(0.998773 0.00139313 0)
(0.998738 0.00148503 0)
(0.998664 0.00158843 0)
(0.998626 0.00167499 0)
(0.998551 0.00176727 0)
(0.998498 0.00184732 0)
(0.99842 0.00193272 0)
(0.998373 0.0020113 0)
(0.99832 0.0020924 0)
(0.998298 0.00216779 0)
(0.998268 0.0022425 0)
(0.998251 0.00231209 0)
(0.998217 0.00237897 0)
(0.998181 0.00244111 0)
(0.998118 0.00249946 0)
(0.998033 0.00255374 0)
(0.99789 0.00260409 0)
(0.99766 0.00265116 0)
(0.997245 0.00269448 0)
(1.00002 -3.46393e-05 0)
(0.999925 -1.67977e-05 0)
(0.999912 3.97687e-05 0)
(0.999824 0.000114431 0)
(0.999825 0.000162752 0)
(0.999748 0.000195977 0)
(0.999724 0.000235061 0)
(0.999642 0.000284026 0)
(0.999644 0.000319071 0)
(0.999525 0.000389496 0)
(0.999498 0.000451737 0)
(0.999449 0.000501769 0)
(0.999375 0.000600734 0)
(0.999308 0.00066933 0)
(0.999251 0.000760248 0)
(0.999193 0.000847898 0)
(0.999144 0.000943848 0)
(0.999072 0.00104388 0)
(0.999037 0.00113505 0)
(0.998973 0.00124336 0)
(0.998954 0.00133219 0)
(0.99889 0.00143764 0)
(0.998859 0.00152402 0)
(0.998789 0.00162062 0)
(0.998754 0.00169948 0)
(0.998685 0.00178335 0)
(0.998638 0.00185773 0)
(0.998569 0.00193751 0)
(0.99853 0.00201312 0)
(0.998486 0.00209022 0)
(0.99847 0.00216303 0)
(0.998446 0.00223338 0)
(0.998432 0.00229963 0)
(0.9984 0.0023617 0)
(0.998366 0.00242025 0)
(0.998304 0.00247396 0)
(0.998219 0.00252485 0)
(0.998077 0.00257101 0)
(0.997848 0.00261505 0)
(0.997433 0.00265468 0)
(1.00002 -1.96796e-05 0)
(0.999939 -3.85174e-06 0)
(0.999934 4.92614e-05 0)
(0.999847 0.000111047 0)
(0.999845 0.000168756 0)
(0.999767 0.000215029 0)
(0.999746 0.000259591 0)
(0.999664 0.000314953 0)
(0.999673 0.000352159 0)
(0.999563 0.000420976 0)
(0.999532 0.000491287 0)
(0.999497 0.000539308 0)
(0.999431 0.000638066 0)
(0.999366 0.000714025 0)
(0.999319 0.000805175 0)
(0.999268 0.000894151 0)
(0.99923 0.000988405 0)
(0.999161 0.00109175 0)
(0.999137 0.00117944 0)
(0.999079 0.00128553 0)
(0.999067 0.00137168 0)
(0.999008 0.0014724 0)
(0.998981 0.00155502 0)
(0.998913 0.00164432 0)
(0.998877 0.00171771 0)
(0.998813 0.00179389 0)
(0.998775 0.00186403 0)
(0.998719 0.00193881 0)
(0.99869 0.00201188 0)
(0.998655 0.0020849 0)
(0.998643 0.00215461 0)
(0.998623 0.00222034 0)
(0.998611 0.00228264 0)
(0.998582 0.00233989 0)
(0.998548 0.00239438 0)
(0.998487 0.00244371 0)
(0.998403 0.0024909 0)
(0.998261 0.00253321 0)
(0.998032 0.00257393 0)
(0.997617 0.00261022 0)
(1.00002 -7.25199e-06 0)
(0.999949 1.06852e-05 0)
(0.999951 5.71971e-05 0)
(0.999868 0.000112402 0)
(0.999866 0.0001731 0)
(0.999787 0.000229936 0)
(0.999769 0.000282215 0)
(0.999687 0.000345233 0)
(0.999699 0.000387619 0)
(0.9996 0.000452961 0)
(0.999567 0.000531284 0)
(0.999541 0.000578506 0)
(0.999491 0.000674124 0)
(0.999428 0.000755765 0)
(0.99939 0.000846149 0)
(0.999345 0.00093743 0)
(0.999319 0.00102685 0)
(0.999255 0.0011333 0)
(0.999238 0.0012185 0)
(0.999186 0.00132089 0)
(0.999178 0.00140343 0)
(0.999126 0.00149726 0)
(0.999098 0.00157518 0)
(0.999033 0.00165605 0)
(0.998997 0.00172563 0)
(0.998941 0.00179686 0)
(0.998912 0.00186576 0)
(0.99887 0.00193661 0)
(0.998851 0.00200737 0)
(0.998824 0.00207556 0)
(0.998816 0.00214166 0)
(0.998798 0.00220205 0)
(0.998787 0.00226014 0)
(0.998759 0.00231222 0)
(0.998725 0.00236268 0)
(0.998665 0.00240753 0)
(0.998581 0.0024512 0)
(0.99844 0.00248972 0)
(0.998211 0.00252737 0)
(0.997796 0.0025604 0)
(1.00002 1.0676e-06 0)
(0.999957 2.57483e-05 0)
(0.999965 6.78427e-05 0)
(0.999885 0.000121544 0)
(0.999887 0.000177261 0)
(0.999809 0.000240951 0)
(0.999794 0.000299808 0)
(0.999711 0.000371689 0)
(0.999726 0.000422741 0)
(0.99964 0.000486184 0)
(0.999604 0.000571855 0)
(0.999587 0.000621964 0)
(0.99955 0.000709995 0)
(0.999492 0.000794679 0)
(0.999462 0.000883336 0)
(0.999422 0.000975675 0)
(0.99941 0.00106034 0)
(0.999352 0.00116514 0)
(0.999339 0.00125007 0)
(0.999293 0.0013469 0)
(0.999288 0.00142616 0)
(0.99924 0.0015117 0)
(0.999213 0.00158494 0)
(0.99915 0.00165864 0)
(0.999117 0.00172586 0)
(0.999071 0.0017937 0)
(0.999053 0.00186097 0)
(0.999023 0.00192819 0)
(0.999012 0.00199537 0)
(0.998992 0.0020589 0)
(0.998985 0.00212036 0)
(0.998969 0.00217595 0)
(0.998958 0.00222922 0)
(0.998931 0.0022769 0)
(0.998897 0.00232298 0)
(0.998838 0.00236412 0)
(0.998754 0.00240403 0)
(0.998614 0.00243947 0)
(0.998385 0.00247386 0)
(0.99797 0.00250424 0)
(1.00002 8.38498e-06 0)
(0.999962 3.90759e-05 0)
(0.999975 8.01569e-05 0)
(0.999901 0.000132637 0)
(0.999906 0.000186622 0)
(0.999831 0.000250717 0)
(0.999822 0.000312094 0)
(0.99974 0.00038963 0)
(0.999753 0.000453452 0)
(0.99968 0.000516689 0)
(0.999644 0.000611308 0)
(0.999628 0.000667764 0)
(0.999609 0.000747386 0)
(0.999557 0.000832511 0)
(0.999537 0.000916878 0)
(0.9995 0.00100969 0)
(0.999501 0.00108904 0)
(0.999452 0.00118904 0)
(0.999442 0.00127309 0)
(0.999399 0.00136465 0)
(0.999394 0.00144056 0)
(0.99935 0.00151828 0)
(0.999323 0.00158729 0)
(0.999266 0.00165635 0)
(0.999238 0.00172262 0)
(0.999203 0.00178799 0)
(0.999194 0.00185313 0)
(0.999175 0.00191604 0)
(0.99917 0.00197876 0)
(0.999155 0.00203702 0)
(0.999149 0.00209364 0)
(0.999134 0.00214443 0)
(0.999123 0.00219333 0)
(0.999096 0.00223682 0)
(0.999063 0.00227901 0)
(0.999005 0.00231655 0)
(0.998922 0.0023531 0)
(0.998781 0.00238548 0)
(0.998552 0.00241698 0)
(0.998138 0.00244475 0)
(1.00002 1.3717e-05 0)
(0.999966 4.9848e-05 0)
(0.999984 9.45055e-05 0)
(0.999913 0.000146947 0)
(0.999923 0.000200169 0)
(0.999851 0.000265887 0)
(0.999848 0.000327374 0)
(0.999772 0.000403781 0)
(0.999785 0.000477284 0)
(0.999726 0.000540751 0)
(0.999691 0.000638712 0)
(0.999672 0.000705736 0)
(0.999666 0.000781336 0)
(0.999622 0.000864961 0)
(0.999611 0.000945779 0)
(0.999578 0.00103555 0)
(0.999589 0.00111072 0)
(0.99955 0.00120102 0)
(0.999545 0.00128137 0)
(0.999504 0.00136596 0)
(0.999499 0.0014387 0)
(0.999457 0.00151061 0)
(0.999434 0.00157714 0)
(0.999385 0.00164388 0)
(0.999364 0.00170887 0)
(0.999337 0.0017719 0)
(0.999335 0.00183331 0)
(0.999324 0.00189155 0)
(0.999324 0.00194851 0)
(0.999312 0.00200149 0)
(0.999309 0.00205262 0)
(0.999294 0.00209897 0)
(0.999282 0.00214328 0)
(0.999256 0.00218305 0)
(0.999224 0.00222125 0)
(0.999167 0.00225552 0)
(0.999084 0.00228857 0)
(0.998944 0.0023181 0)
(0.998715 0.00234656 0)
(0.9983 0.00237185 0)
(1.00002 1.82288e-05 0)
(0.999969 6.11357e-05 0)
(0.999991 0.000107455 0)
(0.999925 0.000162966 0)
(0.999939 0.000216614 0)
(0.999872 0.000284225 0)
(0.999874 0.000349451 0)
(0.999805 0.000422306 0)
(0.999817 0.000500081 0)
(0.999769 0.000562916 0)
(0.999743 0.000655647 0)
(0.999719 0.000729767 0)
(0.999724 0.000804334 0)
(0.999687 0.000888096 0)
(0.999686 0.00096649 0)
(0.999656 0.00105551 0)
(0.999672 0.00112927 0)
(0.999644 0.00121347 0)
(0.999644 0.00128997 0)
(0.999608 0.00137011 0)
(0.999601 0.0014411 0)
(0.999565 0.00150989 0)
(0.999547 0.00157458 0)
(0.999507 0.00163859 0)
(0.999492 0.00170154 0)
(0.99947 0.00176156 0)
(0.999472 0.00181968 0)
(0.999465 0.00187353 0)
(0.999469 0.0019259 0)
(0.999461 0.00197401 0)
(0.999459 0.00202073 0)
(0.999445 0.00206295 0)
(0.999434 0.00210366 0)
(0.999408 0.00214005 0)
(0.999377 0.00217523 0)
(0.99932 0.00220661 0)
(0.999237 0.00223703 0)
(0.999097 0.00226407 0)
(0.998868 0.00229026 0)
(0.998453 0.00231338 0)
(1.00002 2.13371e-05 0)
(0.999971 6.94714e-05 0)
(0.999998 0.000119857 0)
(0.999935 0.000178428 0)
(0.999954 0.000233695 0)
(0.999892 0.000301619 0)
(0.999899 0.000370328 0)
(0.999837 0.000441007 0)
(0.99985 0.000519377 0)
(0.999811 0.000584346 0)
(0.999793 0.000670648 0)
(0.999771 0.000746036 0)
(0.999784 0.000818805 0)
(0.999754 0.000898322 0)
(0.999763 0.000971537 0)
(0.999738 0.0010532 0)
(0.999759 0.00112297 0)
(0.999739 0.00119807 0)
(0.999746 0.00126716 0)
(0.999714 0.0013392 0)
(0.999708 0.00140515 0)
(0.999674 0.00146918 0)
(0.999661 0.0015295 0)
(0.999629 0.001589 0)
(0.999621 0.00164747 0)
(0.999604 0.00170364 0)
(0.999609 0.00175776 0)
(0.999605 0.00180785 0)
(0.999612 0.00185587 0)
(0.999606 0.00189983 0)
(0.999606 0.00194215 0)
(0.999594 0.00198054 0)
(0.999583 0.00201749 0)
(0.999558 0.00205075 0)
(0.999527 0.00208282 0)
(0.999471 0.00211159 0)
(0.999389 0.00213943 0)
(0.99925 0.00216432 0)
(0.999021 0.00218843 0)
(0.998605 0.00220988 0)
(1.00002 2.48614e-05 0)
(0.999974 7.86698e-05 0)
(1 0.000131733 0)
(0.999946 0.000192635 0)
(0.999969 0.000250538 0)
(0.999914 0.000316861 0)
(0.999925 0.000387376 0)
(0.999869 0.000458138 0)
(0.999885 0.000536412 0)
(0.999853 0.000602921 0)
(0.999844 0.000687398 0)
(0.99982 0.000764104 0)
(0.99984 0.000837402 0)
(0.999815 0.000918259 0)
(0.999829 0.000991847 0)
(0.999809 0.00107286 0)
(0.999833 0.00114414 0)
(0.999818 0.00121851 0)
(0.999831 0.00128605 0)
(0.999806 0.00135415 0)
(0.999805 0.00141657 0)
(0.999776 0.00147706 0)
(0.999769 0.00153448 0)
(0.999744 0.00159041 0)
(0.999742 0.00164502 0)
(0.999732 0.00169692 0)
(0.99974 0.00174685 0)
(0.999737 0.00179282 0)
(0.999746 0.00183685 0)
(0.999741 0.00187695 0)
(0.999743 0.00191548 0)
(0.999731 0.00195023 0)
(0.999722 0.00198352 0)
(0.999698 0.00201321 0)
(0.999668 0.00204163 0)
(0.999613 0.00206682 0)
(0.999532 0.00209098 0)
(0.999394 0.00211233 0)
(0.999166 0.00213287 0)
(0.998752 0.00215095 0)
(1.00002 2.44415e-05 0)
(0.999975 8.61179e-05 0)
(1.00001 0.000142953 0)
(0.999955 0.000208481 0)
(0.999981 0.000267489 0)
(0.999933 0.000333187 0)
(0.99995 0.000401044 0)
(0.9999 0.00047125 0)
(0.99992 0.000545678 0)
(0.999896 0.000609877 0)
(0.999897 0.000687645 0)
(0.999876 0.000759603 0)
(0.999905 0.000823764 0)
(0.99989 0.000894045 0)
(0.999913 0.000956407 0)
(0.9999 0.00102311 0)
(0.999929 0.00108064 0)
(0.99992 0.0011413 0)
(0.999934 0.00119729 0)
(0.999911 0.00125664 0)
(0.999909 0.00131456 0)
(0.999883 0.0013751 0)
(0.99988 0.00143482 0)
(0.999862 0.0014933 0)
(0.999864 0.00154763 0)
(0.999857 0.00159694 0)
(0.999867 0.001642 0)
(0.999866 0.0016831 0)
(0.999876 0.00172246 0)
(0.999873 0.00175953 0)
(0.999875 0.00179609 0)
(0.999864 0.00183067 0)
(0.999853 0.00186471 0)
(0.999827 0.00189652 0)
(0.999794 0.00192755 0)