/*--------------------------------*- C++ -*----------------------------------*\
| =========                 |                                                 |
| \\      /  F ield         | OpenFOAM: The Open Source CFD Toolbox           |
|  \\    /   O peration     | Version:  2312                                  |
|   \\  /    A nd           | Website:  www.openfoam.com                      |
|    \\/     M anipulation  |                                                 |
\*---------------------------------------------------------------------------*/
FoamFile
{
    version     2.0;
    format      ascii;
    arch        "LSB;label=32;scalar=64";
    class       volScalarField;
    location    "0.2";
    object      p;
}
// * * * * * * * * * * * * * * * * * * * * * * * * * * * * * * * * * * * * * //

dimensions      [0 2 -2 0 0 0 0];

internalField   nonuniform List<scalar> 
5600
(
-2.33666e-09
0.000422843
0.000115176
0.000397753
0.0004011
0.000602103
0.000599103
0.000776163
0.000824197
0.000950142
0.00107524
0.00116701
0.00124541
0.00136183
0.00147822
0.00163343
0.00176473
0.00187181
0.00196736
0.00213817
0.00233418
0.00251087
0.00269468
0.00291235
0.0030853
0.00327496
0.00352201
0.00376467
0.00400149
0.00425536
0.00450532
0.0047594
0.00503717
0.00534369
0.00566635
0.00599068
0.00630764
0.00661613
0.00685129
0.00682633
2.9852e-06
0.000420298
0.000153327
0.000396267
0.000403412
0.000600799
0.000603719
0.000772875
0.000823914
0.000948599
0.00107471
0.00116361
0.00124651
0.00136049
0.00147972
0.00163313
0.0017661
0.00187164
0.0019682
0.00213769
0.00233371
0.00250885
0.00269137
0.00290696
0.0030787
0.00326691
0.00351219
0.00375265
0.0039862
0.00423275
0.0044709
0.00469025
0.00492026
0.00518241
0.00545441
0.00570585
0.00589523
0.00599104
0.00593951
0.00561525
6.114e-06
0.00041915
0.000146805
0.000397566
0.000405582
0.000598271
0.000609143
0.00077011
0.00082362
0.000949802
0.00107364
0.00116688
0.0012466
0.00135892
0.00148086
0.00163207
0.00176815
0.00187104
0.00196991
0.00213769
0.00233426
0.00250596
0.00268727
0.0029004
0.00307036
0.00325653
0.00349744
0.00373366
0.00395941
0.00419332
0.00441539
0.00461834
0.00483253
0.00507649
0.00532306
0.00554523
0.00570539
0.00577618
0.00571193
0.00540474
1.11722e-05
0.000416156
0.000175576
0.000397779
0.000409109
0.000594757
0.000617865
0.000765533
0.000824073
0.000949161
0.00107387
0.00116729
0.00124765
0.00135689
0.00148251
0.00163104
0.00177016
0.00187068
0.00197222
0.00213756
0.00233491
0.00250331
0.00268169
0.00289211
0.00305854
0.00323921
0.00347666
0.00370455
0.00391968
0.00413431
0.00433403
0.00452275
0.00472055
0.00493522
0.00513743
0.0052985
0.0053862
0.00537111
0.00521364
0.0048254
1.59207e-05
0.000413854
0.000187048
0.000398796
0.000412704
0.000591637
0.00062386
0.000761492
0.000824608
0.000948593
0.00107493
0.00116779
0.00124793
0.00135485
0.00148276
0.00162991
0.00177054
0.00186974
0.00197243
0.00213685
0.00233357
0.00249854
0.00267275
0.00288007
0.00304136
0.00321528
0.00344551
0.00366042
0.00386032
0.00405794
0.00424162
0.00441487
0.00459438
0.00478387
0.00495506
0.00508172
0.00513854
0.00510324
0.00493797
0.00455913
2.23282e-05
0.000410213
0.00021079
0.000398607
0.000417812
0.000587337
0.000631465
0.000756363
0.000825321
0.000946976
0.00107616
0.00116694
0.00124686
0.00135264
0.00148223
0.0016286
0.00176935
0.00186804
0.00197079
0.00213438
0.00232919
0.00249169
0.00266027
0.00286231
0.00301835
0.00318037
0.0033999
0.00360301
0.00378599
0.00396811
0.00413943
0.00429894
0.00445974
0.00462561
0.00477012
0.00486959
0.0048989
0.00483577
0.00464121
0.00423296
2.88103e-05
0.000406641
0.000224494
0.000398992
0.000423299
0.00058302
0.000638363
0.000750947
0.000825897
0.000945467
0.00107689
0.00116668
0.00124424
0.00134997
0.00148052
0.00162614
0.00176679
0.00186468
0.00196629
0.00212924
0.00232167
0.00248121
0.00264238
0.00283693
0.00298611
0.003134
0.003341
0.0035316
0.00369942
0.00386752
0.00402688
0.00417165
0.00431244
0.00445586
0.00457934
0.00466188
0.00468054
0.0046137
0.00442107
0.00401623
3.70288e-05
0.000401638
0.000248716
0.000398554
0.000430008
0.000578065
0.000645088
0.000744825
0.000825793
0.0009442
0.00107616
0.00116716
0.00124031
0.0013463
0.00147781
0.00162271
0.00176244
0.00185941
0.00195926
0.00212105
0.00230999
0.00246638
0.00261899
0.00280223
0.00294302
0.00307476
0.00326753
0.00344814
0.00360241
0.00375388
0.00389802
0.00402864
0.00415309
0.00428325
0.00439828
0.00447438
0.00448832
0.00442161
0.00423672
0.00385005
4.57224e-05
0.000396198
0.000264363
0.000398213
0.000437172
0.00057291
0.000651334
0.000738904
0.000824776
0.00094321
0.00107526
0.00116515
0.00123566
0.00134127
0.00147373
0.00161742
0.00175625
0.00185213
0.00194818
0.00210858
0.00229433
0.00244527
0.00258793
0.00275749
0.00288813
0.00300461
0.00318327
0.00335306
0.00349166
0.00362372
0.00374959
0.00386623
0.00398071
0.00410771
0.0042313
0.00432961
0.00437618
0.00434432
0.00417807
0.0037552
5.6243e-05
0.000389149
0.000286801
0.00039766
0.000445182
0.000567775
0.000656156
0.00073346
0.000822376
0.000941635
0.00107393
0.00116069
0.00123053
0.00133465
0.00146834
0.0016109
0.00174762
0.00184235
0.00193351
0.00209126
0.00227299
0.00241682
0.00254816
0.00270194
0.00282389
0.00292606
0.00308784
0.0032474
0.00337048
0.0034792
0.00357861
0.00366635
0.00374451
0.00383655
0.00394407
0.00404428
0.0041215
0.00420595
0.00438007
0.00479307
6.76861e-05
0.000381136
0.000305698
0.000397242
0.000452971
0.000563491
0.000658359
0.000729858
0.00081861
0.000939777
0.00107177
0.00115618
0.00122355
0.00132632
0.00146097
0.00160208
0.00173568
0.00182941
0.00191448
0.00206678
0.00224586
0.00238095
0.00249774
0.00263571
0.0027497
0.00283853
0.00298226
0.00313283
0.00324372
0.00333575
0.00342226
0.00350684
0.00359321
0.00369961
0.00381717
0.0039276
0.00402553
0.00413924
0.00433073
0.00470635
8.09502e-05
0.000371475
0.000325849
0.000397637
0.000460224
0.000560953
0.000657251
0.000726673
0.000813243
0.000937049
0.00106785
0.00115226
0.00121497
0.00131579
0.00145171
0.00159171
0.00172052
0.001812
0.00189187
0.00203565
0.00221028
0.00233646
0.00243811
0.00255975
0.00266581
0.00274427
0.00286702
0.00300965
0.00311823
0.00320566
0.00329269
0.00338493
0.0034727
0.0035636
0.00365897
0.00375375
0.00385073
0.00397884
0.00419782
0.00461075
9.55669e-05
0.000360572
0.000344686
0.00039928
0.000465379
0.000560195
0.000655232
0.000723151
0.000807524
0.000933201
0.00106325
0.00114595
0.0012047
0.0013027
0.00143945
0.00157798
0.00170141
0.00178917
0.00186394
0.00199681
0.00216474
0.00228601
0.00237179
0.00247459
0.00257325
0.0026452
0.00275111
0.00289185
0.00300955
0.00309766
0.00317533
0.00325446
0.00332961
0.0034065
0.00349071
0.00358255
0.00368815
0.00383178
0.00406548
0.00448285
0.000111858
0.000348454
0.000361487
0.000403625
0.000468477
0.000561252
0.000652046
0.000718269
0.000800792
0.000927454
0.00105722
0.00113806
0.00119311
0.00128749
0.00142413
0.00156111
0.00167905
0.00176078
0.00183
0.00195219
0.00210877
0.00222701
0.00230151
0.0023851
0.00247492
0.0025463
0.00264379
0.00277771
0.00289572
0.00297848
0.00304306
0.00310901
0.00317638
0.00324702
0.00332611
0.00341687
0.00352579
0.00367317
0.00390649
0.00431864
0.000129526
0.000336593
0.00037534
0.000408688
0.000469996
0.000562702
0.000649268
0.000712209
0.000793175
0.000920426
0.00105006
0.00112836
0.00117924
0.00126908
0.00140452
0.00153914
0.00165158
0.00172684
0.00178843
0.00190102
0.0020458
0.00215887
0.00222826
0.0022946
0.00237237
0.0024433
0.00253472
0.00266064
0.00277597
0.00285249
0.00290496
0.00295904
0.00302102
0.00308888
0.00316424
0.00325079
0.0033573
0.00350355
0.00373546
0.00414589
0.000148516
0.000325566
0.000384433
0.000414811
0.000471607
0.000564162
0.000647078
0.000704683
0.00078366
0.000911151
0.00104082
0.00111753
0.00116328
0.00124731
0.00138148
0.00151322
0.00161921
0.00168839
0.00174013
0.00184397
0.00197939
0.00208265
0.0021481
0.0022022
0.00226724
0.00233457
0.00242086
0.00253876
0.00264944
0.0027211
0.0027644
0.00280774
0.00286342
0.00292855
0.00300064
0.00308253
0.00318485
0.00332931
0.00356127
0.00397209
0.000168504
0.000315927
0.000388781
0.000421022
0.000473123
0.000564749
0.000645207
0.000696737
0.000772333
0.000899787
0.00102989
0.00110374
0.00114462
0.00122146
0.00135268
0.00148171
0.0015803
0.0016439
0.00168281
0.00177668
0.00190666
0.00200226
0.00206098
0.00210641
0.00215994
0.00222176
0.00230275
0.00241182
0.00251697
0.00258589
0.00262304
0.00265624
0.00270305
0.00276362
0.00283321
0.00291245
0.00301207
0.00315538
0.00338752
0.00379878
0.000189153
0.000308086
0.000387958
0.000426735
0.000475419
0.000564667
0.000643056
0.000688478
0.000758594
0.000885183
0.00101625
0.00108976
0.0011241
0.00119168
0.00131844
0.00144677
0.00153648
0.00159396
0.00162544
0.00170118
0.00182657
0.00191927
0.00196867
0.00200477
0.0020486
0.00210538
0.00218072
0.00228031
0.00237884
0.00244606
0.00247983
0.00250479
0.00254197
0.00259641
0.00266355
0.00274182
0.00284004
0.00298173
0.00321243
0.0036229
0.000209499
0.000302993
0.000383296
0.000430025
0.000477394
0.000563509
0.000640204
0.000680107
0.000743194
0.000867303
0.000999609
0.00107204
0.0011003
0.00115776
0.00127739
0.00140422
0.00148718
0.00153718
0.00156299
0.00162072
0.00173598
0.00183018
0.00187387
0.00189895
0.00193327
0.001985
0.00205525
0.00214637
0.00223748
0.00230215
0.00233404
0.00235314
0.00238172
0.00242921
0.00249305
0.00257047
0.00266826
0.00280914
0.0030389
0.00344883
0.000228159
0.000300949
0.000377308
0.000429605
0.000478388
0.000562242
0.000636617
0.000671286
0.000725851
0.000845413
0.000978808
0.00105138
0.00107477
0.00112058
0.00123003
0.00135606
0.00143455
0.00147285
0.00149473
0.00153787
0.00163671
0.0017327
0.00177669
0.00179162
0.00181389
0.00185909
0.00192574
0.00201043
0.00209424
0.00215516
0.00218585
0.0022016
0.00222352
0.00226367
0.00232265
0.00239831
0.00249618
0.00263733
0.00286696
0.00327648
0.000244565
0.000302094
0.000371007
0.000424607
0.000476875
0.000559807
0.000632064
0.000661793
0.000706943
0.000819925
0.000953459
0.00102733
0.0010457
0.00107887
0.00117641
0.00129878
0.0013757
0.00140481
0.00141988
0.0014515
0.00153214
0.00162524
0.00167425
0.00168411
0.00169394
0.0017301
0.00179235
0.00187205
0.00194999
0.00200699
0.00203622
0.00204948
0.00206603
0.00209936
0.00215309
0.00222647
0.00232444
0.00246641
0.00269651
0.00310601
0.000258484
0.000304557
0.000365613
0.000417286
0.000471931
0.000555608
0.000626606
0.000651647
0.000686166
0.000790347
0.000922805
0.000998983
0.00101352
0.00103463
0.00111724
0.00123329
0.00131193
0.00133335
0.0013372
0.00136026
0.00142516
0.00151067
0.001565
0.00157569
0.00157585
0.00159959
0.00165445
0.00172996
0.00180434
0.00185828
0.00188587
0.0018971
0.00190957
0.00193707
0.00198545
0.00205582
0.00215338
0.00229635
0.00252755
0.00293758
0.000269621
0.000307646
0.000361515
0.000408334
0.000462332
0.000547818
0.000619692
0.000640796
0.00066366
0.000756774
0.000886644
0.000966078
0.000977911
0.000986331
0.00105291
0.0011602
0.00123988
0.00125781
0.00125119
0.00126389
0.0013149
0.00139075
0.00144834
0.0014649
0.00146088
0.0014717
0.00151475
0.00158346
0.00165547
0.00170876
0.00173607
0.00174593
0.00175483
0.00177691
0.00181994
0.00188696
0.00198378
0.00212773
0.00236025
0.00277112
0.000277973
0.00030982
0.000358111
0.000398964
0.000449266
0.000535388
0.000610476
0.000629328
0.000639673
0.000718777
0.000844176
0.000928024
0.000938768
0.000934892
0.000983758
0.00107912
0.00115996
0.00117981
0.00116281
0.00116165
0.00120048
0.00126758
0.00132667
0.00135051
0.0013476
0.00134838
0.0013767
0.00143414
0.00150188
0.00155614
0.00158573
0.0015962
0.00160269
0.00161995
0.00165758
0.00172075
0.00181617
0.00196076
0.00219467
0.00260669
0.000283581
0.000310518
0.000354622
0.000389979
0.000433319
0.00051719
0.000597229
0.000616844
0.000615077
0.000676755
0.000794735
0.000883877
0.000896458
0.000881063
0.000910088
0.000991187
0.00107152
0.00109676
0.00107492
0.00105857
0.00108219
0.00113991
0.00119975
0.0012322
0.00123517
0.00123073
0.00124477
0.00128649
0.00134483
0.00139818
0.001432
0.0014465
0.00145338
0.00146722
0.00149958
0.00155824
0.00165145
0.00179617
0.00203143
0.00244482
0.000286675
0.000308886
0.000349612
0.000381504
0.000415786
0.000493119
0.00057831
0.000602465
0.000590837
0.000631557
0.000737777
0.00083195
0.00085021
0.000826565
0.000834518
0.000896786
0.000973044
0.00100763
0.000988386
0.000958296
0.000962981
0.00100815
0.00106716
0.00110877
0.00112092
0.00111675
0.00111988
0.00114485
0.00118902
0.00123681
0.0012731
0.00129323
0.00130385
0.00131735
0.00134612
0.00140036
0.00149048
0.00163429
0.00187023
0.00228484
0.000287287
0.000304718
0.000342119
0.000372939
0.000397578
0.000463954
0.00055189
0.000584167
0.000567399
0.000585392
0.000673814
0.000770171
0.000798728
0.000772092
0.00075982
0.000799363
0.000865284
0.00090833
0.000899859
0.000864119
0.000849496
0.000876648
0.000929877
0.000979247
0.00100283
0.00100377
0.00100131
0.00101176
0.00103954
0.00107704
0.00111215
0.00113734
0.0011539
0.00117041
0.00119838
0.00124948
0.00133634
0.00147839
0.00171439
0.00213007
0.0002849
0.000297701
0.000331358
0.00036285
0.00037962
0.000431749
0.000516942
0.000559171
0.000543945
0.000541485
0.000605867
0.000696988
0.000739
0.000717428
0.000688861
0.000703515
0.00075257
0.000797327
0.000803222
0.00077236
0.000743313
0.000748757
0.000788802
0.000839863
0.000873955
0.000883721
0.000881279
0.000882309
0.000895697
0.000920433
0.000949376
0.000975415
0.000996699
0.00101774
0.00104754
0.00109746
0.00118151
0.00132092
0.00155568
0.00197167
0.000280214
0.000287964
0.000316381
0.00034944
0.000361781
0.000398135
0.000474074
0.000525228
0.000517137
0.000500929
0.00053823
0.000614123
0.000666923
0.00065899
0.000623646
0.000615452
0.000644702
0.000684229
0.000701826
0.000684818
0.000653508
0.000640783
0.000661484
0.000704044
0.000742843
0.000762323
0.000765031
0.000763099
0.000767083
0.000780495
0.000800741
0.00082313
0.00084539
0.000869581
0.000902034
0.000952578
0.00103526
0.0011723
0.00140487
0.00181947
0.000270445
0.000276172
0.000298838
0.000330703
0.000343113
0.000365206
0.000425415
0.000480763
0.000483975
0.000462822
0.000475149
0.000528792
0.000580993
0.00058778
0.000554993
0.00052801
0.000533245
0.000557794
0.000575801
0.000570645
0.000547049
0.000527129
0.000530172
0.00055662
0.000590652
0.000615458
0.000625432
0.000626524
0.00062781
0.000635116
0.00064948
0.000669283
0.00069316
0.00072205
0.000760231
0.000815807
0.000902093
0.00104156
0.0012761
0.00169292
0.000258436
0.000259852
0.000278678
0.00030622
0.000320108
0.00033366
0.000375119
0.000425726
0.000440927
0.000423495
0.000418781
0.000450435
0.000495459
0.000515849
0.000499144
0.000471767
0.000463295
0.000474606
0.0004882
0.000488509
0.000472749
0.000452038
0.000440971
0.000446741
0.000465295
0.000484775
0.000495906
0.000497459
0.000493624
0.000489608
0.000488811
0.00049269
0.000501984
0.000518351
0.000545797
0.000591848
0.000669506
0.00080142
0.00103019
0.00144407
0.000239279
0.000243455
0.000255369
0.000276736
0.000291736
0.000300119
0.000325581
0.00036524
0.000385658
0.000374674
0.000360351
0.000369018
0.000393342
0.000408407
0.000398052
0.000370324
0.00034682
0.000338512
0.000339931
0.000340066
0.000333052
0.000321584
0.000313539
0.000315786
0.000328218
0.000344545
0.000358931
0.000369066
0.000376385
0.000384096
0.000395105
0.000411204
0.000433447
0.000463547
0.000505158
0.00056525
0.000656131
0.000799924
0.00103891
0.00146116
0.000214653
0.000223369
0.000229016
0.000243759
0.000258368
0.000263924
0.000278065
0.000305423
0.000325517
0.000324156
0.000314218
0.000315357
0.000330949
0.00034908
0.00035632
0.000349613
0.000338951
0.00033543
0.000340547
0.000346681
0.000345708
0.000334486
0.000316348
0.000297442
0.00028019
0.000263514
0.00024529
0.000223461
0.00019783
0.000169337
0.000138715
0.000105387
6.72983e-05
2.12841e-05
-3.73006e-05
-0.000115584
-0.000225719
-0.000389601
-0.000649571
-0.0010941
0.000191078
0.000193936
0.0001985
0.000207302
0.00021617
0.000221078
0.000227001
0.000239077
0.000250725
0.000249928
0.000236441
0.000223088
0.000217992
0.000216019
0.000207475
0.00018896
0.000165805
0.000145675
0.000132064
0.000123909
0.00011875
0.000115288
0.0001138
0.000115197
0.000120255
0.000128325
0.000138494
0.000150028
0.000162312
0.000175505
0.000190468
0.000208778
0.000232451
0.000264181
0.000308088
0.000370999
0.000464844
0.000611343
0.000852546
0.00127646
0.000159438
0.000163071
0.000168201
0.000170664
0.00017453
0.000179437
0.000182173
0.000187696
0.000197091
0.000201789
0.000197911
0.000192895
0.000193881
0.000199147
0.000202629
0.000200926
0.000194846
0.000186622
0.000177066
0.000165524
0.000150951
0.000132083
0.000108766
8.19629e-05
5.24002e-05
2.10833e-05
-1.13263e-05
-4.47651e-05
-7.97089e-05
-0.000116598
-0.000155766
-0.000197931
-0.000244524
-0.000298052
-0.000362648
-0.000445251
-0.000557873
-0.000722274
-0.000980429
-0.00142023
0.000126043
0.000125677
0.000122859
0.000122683
0.000123319
0.000119206
0.000114254
0.000111428
0.000107189
9.87307e-05
8.62076e-05
7.0512e-05
5.33097e-05
3.67274e-05
2.1034e-05
4.5174e-06
-1.36971e-05
-3.17591e-05
-4.61279e-05
-5.48522e-05
-5.87148e-05
-5.8888e-05
-5.66688e-05
-5.27182e-05
-4.62337e-05
-3.75361e-05
-2.76848e-05
-1.696e-05
-5.19884e-06
8.05785e-06
2.34419e-05
4.21653e-05
6.60118e-05
9.76251e-05
0.000141121
0.000203394
0.00029644
0.000442032
0.000682174
0.0011048
9.1736e-05
9.09758e-05
9.10847e-05
8.89889e-05
8.334e-05
7.98398e-05
7.76413e-05
7.37366e-05
7.0888e-05
7.02188e-05
6.78572e-05
6.25062e-05
5.76738e-05
5.5287e-05
5.29302e-05
4.77381e-05
3.94147e-05
2.89493e-05
1.60415e-05
-2.99578e-07
-2.03647e-05
-4.42099e-05
-7.07973e-05
-9.93416e-05
-0.000130509
-0.000163914
-0.000198564
-0.000233994
-0.000270032
-0.000306896
-0.000345118
-0.00038592
-0.000431046
-0.000483051
-0.000545929
-0.000626501
-0.000736758
-0.000898516
-0.00115383
-0.00159064
4.34136e-05
4.03173e-05
3.29324e-05
2.30942e-05
1.29806e-05
2.94666e-07
-1.44241e-05
-2.83457e-05
-4.23622e-05
-5.83549e-05
-7.54938e-05
-9.26396e-05
-0.000110239
-0.000128308
-0.000145423
-0.000160499
-0.000173767
-0.000185526
-0.000194661
-0.000199879
-0.00020085
-0.000197712
-0.000191937
-0.000184459
-0.000174775
-0.000163472
-0.000151269
-0.000138364
-0.000124798
-0.000110311
-9.427e-05
-7.52779e-05
-5.14145e-05
-1.99843e-05
2.30826e-05
8.46583e-05
0.000176748
0.000321172
0.00055997
0.000981096
1.55775e-05
1.55104e-05
1.0984e-05
-2.49162e-07
-1.34488e-05
-2.46179e-05
-3.60085e-05
-4.83973e-05
-5.87608e-05
-6.72518e-05
-7.56817e-05
-8.37486e-05
-8.97345e-05
-9.39862e-05
-9.79912e-05
-0.000102487
-0.000107242
-0.000112818
-0.000120736
-0.000131884
-0.000146239
-0.000163598
-0.000183031
-0.000204625
-0.000228702
-0.000254298
-0.000280837
-0.000308113
-0.000336189
-0.000365392
-0.000396452
-0.000430633
-0.00046965
-0.000516092
-0.000574066
-0.000650508
-0.000757425
-0.000916594
-0.00117004
-0.00160581
-4.92722e-05
-5.28424e-05
-6.54581e-05
-8.57209e-05
-0.000107092
-0.000129865
-0.000154862
-0.000179249
-0.000202024
-0.00022494
-0.000246981
-0.000266262
-0.000282834
-0.000297719
-0.000310196
-0.000318944
-0.000323766
-0.000325295
-0.000323379
-0.000317552
-0.000307405
-0.000293182
-0.000276429
-0.000257726
-0.000237173
-0.000215662
-0.0001936
-0.000171294
-0.000149004
-0.000126665
-0.000103715
-7.88899e-05
-5.04127e-05
-1.55733e-05
2.9819e-05
9.27663e-05
0.000185257
0.000328995
0.000565832
0.000983513
0.00658481
0.00667417
0.00697812
0.00717034
0.00716163
0.00695865
0.00663523
0.00627503
0.00593575
0.00564364
0.00540374
0.00520849
0.00504639
0.00490628
0.00477829
0.00465402
0.00453212
0.00441454
0.00430365
0.00419352
0.00408124
0.00396234
0.00384063
0.0037203
0.00360532
0.00350011
0.00339845
0.0033017
0.00319862
0.00310206
0.00299828
0.00289518
0.00279154
0.00266294
0.0025256
0.00236159
0.00218038
0.00200184
0.00182739
0.00163856
0.00145467
0.00128202
0.00111999
0.00102113
0.000944678
0.000876327
0.000744655
0.000470937
-2.3192e-06
-0.000640189
-0.000945418
-0.000918539
-0.00129339
-0.00206907
-0.00270635
-0.00325662
-0.00397831
-0.00477736
-0.00555341
-0.00622587
-0.00665594
-0.0067634
-0.00650012
-0.00597646
-0.00537075
-0.00476651
-0.0042833
-0.00400847
-0.0038626
-0.00383881
-0.00390327
-0.00387847
-0.0037301
-0.00361795
-0.00358598
-0.00354226
-0.00345031
-0.00334945
-0.00326786
-0.00321247
-0.00318031
-0.00316799
-0.00316664
-0.00317308
-0.00318182
-0.00319452
-0.0032083
-0.00322488
-0.00324413
-0.00326348
-0.00328905
-0.00331027
-0.0033412
-0.0033659
-0.00339737
-0.00342887
-0.00345503
-0.00348516
-0.00349565
-0.00349425
0.00525277
0.00533423
0.00579492
0.00624224
0.00650961
0.00655537
0.00640593
0.00613771
0.00583125
0.00554087
0.00529184
0.00509114
0.00493489
0.00481134
0.00470494
0.00459936
0.004487
0.00437105
0.00426015
0.00415218
0.00404463
0.00393064
0.00381171
0.0036912
0.00357565
0.00347187
0.00337234
0.00327705
0.00317361
0.00307619
0.00297095
0.00286759
0.00276441
0.00263528
0.00249941
0.00233774
0.00215855
0.00198305
0.00181052
0.00162299
0.00144063
0.00126897
0.00110692
0.00100482
0.000925218
0.000852092
0.000713675
0.000444771
-1.69122e-05
-0.000655825
-0.000951846
-0.000919915
-0.00130018
-0.0020761
-0.00270585
-0.00325086
-0.00396593
-0.00475192
-0.005517
-0.00618585
-0.00661734
-0.00673108
-0.0064752
-0.00595747
-0.00535894
-0.00475971
-0.00427751
-0.00400408
-0.00385941
-0.00383517
-0.00389979
-0.00387614
-0.00372864
-0.00361672
-0.0035848
-0.00354148
-0.00345024
-0.0033502
-0.00326888
-0.00321314
-0.00318044
-0.00316784
-0.00316632
-0.00317275
-0.00318159
-0.00319441
-0.00320826
-0.00322487
-0.00324413
-0.00326348
-0.00328905
-0.00331027
-0.0033412
-0.0033659
-0.00339736
-0.00342888
-0.00345503
-0.00348517
-0.00349567
-0.00349421
0.00507928
0.00519231
0.00569332
0.0061842
0.00649265
0.00657385
0.00644841
0.00618901
0.00587747
0.00557375
0.00530932
0.00509551
0.00493109
0.00480432
0.00469882
0.00459662
0.00448665
0.00436878
0.00425212
0.00413895
0.00402806
0.00391376
0.00379458
0.00367143
0.0035512
0.00344303
0.00334221
0.00324504
0.00314157
0.00304029
0.00293324
0.00282411
0.00271256
0.00258516
0.00244901
0.00229265
0.00212361
0.00195345
0.00178291
0.00160153
0.00142822
0.00126084
0.00110453
0.000992423
0.000890977
0.000795836
0.000633817
0.000359876
-4.81543e-05
-0.000625459
-0.000943749
-0.000970928
-0.00135493
-0.00208723
-0.00269421
-0.00322948
-0.00392387
-0.0046823
-0.00541817
-0.0060579
-0.00647872
-0.00660709
-0.0063837
-0.00590248
-0.00533332
-0.00475568
-0.0042865
-0.00401532
-0.00386718
-0.00383851
-0.00389923
-0.00387361
-0.00372673
-0.00361607
-0.00358447
-0.00354072
-0.00344978
-0.00334966
-0.00326848
-0.00321317
-0.00318098
-0.00316846
-0.00316701
-0.00317335
-0.00318198
-0.0031946
-0.00320832
-0.00322489
-0.00324413
-0.00326348
-0.00328905
-0.00331027
-0.0033412
-0.0033659
-0.00339737
-0.00342889
-0.00345504
-0.00348522
-0.0034958
-0.00349418
0.00445966
0.00454865
0.0050403
0.0055485
0.00589901
0.00604429
0.00599531
0.00581078
0.00556204
0.00530575
0.00507482
0.00488332
0.00473367
0.00461881
0.00452632
0.00444127
0.00435183
0.00425213
0.00414742
0.00404088
0.00393498
0.00382643
0.00371549
0.00360089
0.00348474
0.00337736
0.00327809
0.0031849
0.00308485
0.00298409
0.00287694
0.00276633
0.00265645
0.00253215
0.00239828
0.00225002
0.00208766
0.00192166
0.00175684
0.00158183
0.00141399
0.00124678
0.00108847
0.000965063
0.00084495
0.000737524
0.000562388
0.000295791
-6.3537e-05
-0.000604643
-0.00095455
-0.00102095
-0.00139177
-0.00208708
-0.00267598
-0.00320421
-0.00387979
-0.00460572
-0.00530362
-0.00591771
-0.00633177
-0.00647663
-0.00628507
-0.00583558
-0.00529563
-0.00474126
-0.00428296
-0.00401354
-0.00386577
-0.0038333
-0.00388803
-0.00386187
-0.00371952
-0.00361118
-0.00357866
-0.00353504
-0.00344557
-0.00334905
-0.00326993
-0.00321504
-0.00318217
-0.00316901
-0.00316689
-0.00317296
-0.00318164
-0.00319442
-0.00320827
-0.00322488
-0.00324413
-0.00326348
-0.00328905
-0.00331027
-0.0033412
-0.00336591
-0.00339737
-0.0034289
-0.00345506
-0.00348528
-0.00349596
-0.00349418
0.00421565
0.00432548
0.0048439
0.00538115
0.00576106
0.00593527
0.00591336
0.00575188
0.00552048
0.0052754
0.00505055
0.0048615
0.00471232
0.0045976
0.0045059
0.00442331
0.00433837
0.00424373
0.00414112
0.00403299
0.0039228
0.00380998
0.00369722
0.00358346
0.00346811
0.00335615
0.0032517
0.00315473
0.00305378
0.00295075
0.00284128
0.00272863
0.00261283
0.00248802
0.00235559
0.00220933
0.00205151
0.00189053
0.00172883
0.00155738
0.00139494
0.00122932
0.00107163
0.000943423
0.000808757
0.000686802
0.000500569
0.000234662
-9.82354e-05
-0.000599543
-0.000955568
-0.00106112
-0.00142941
-0.00209118
-0.00266004
-0.00317666
-0.0038254
-0.00451915
-0.00518464
-0.0057705
-0.00616741
-0.00631876
-0.00615961
-0.00575029
-0.00524648
-0.00472142
-0.00428097
-0.0040172
-0.00386927
-0.0038325
-0.00388102
-0.00385312
-0.0037137
-0.00360753
-0.00357471
-0.00353078
-0.00344374
-0.00334767
-0.00326967
-0.00321556
-0.00318338
-0.00317023
-0.00316813
-0.00317398
-0.00318229
-0.00319473
-0.00320835
-0.00322489
-0.00324413
-0.00326348
-0.00328905
-0.00331028
-0.00334119
-0.00336591
-0.00339738
-0.00342892
-0.00345508
-0.00348535
-0.00349614
-0.00349418
0.00386888
0.00396694
0.0044786
0.00501489
0.00539881
0.00558159
0.00557211
0.00542612
0.00521231
0.00498602
0.0047803
0.00460992
0.00447841
0.00437974
0.00430262
0.00423335
0.00416237
0.00408187
0.00399243
0.00389462
0.00379227
0.00368622
0.00357989
0.00347496
0.00336968
0.0032655
0.00316445
0.00306993
0.0029733
0.00287486
0.00276984
0.00265928
0.00254415
0.00242383
0.002295
0.00215615
0.00200709
0.00184971
0.0016939
0.00152749
0.00136943
0.0012062
0.00104539
0.000911413
0.000760882
0.000626001
0.000434695
0.000164092
-0.000138993
-0.00059421
-0.000958731
-0.0011067
-0.00146976
-0.00209352
-0.00264002
-0.00314269
-0.00376993
-0.00443264
-0.00506159
-0.00561682
-0.00600089
-0.00616496
-0.00604153
-0.00567061
-0.00520046
-0.00470381
-0.00427892
-0.00401749
-0.00386874
-0.00382758
-0.00386899
-0.00383948
-0.00370466
-0.00360123
-0.00356747
-0.00352337
-0.00343678
-0.003346
-0.0032705
-0.00321748
-0.0031848
-0.00317106
-0.00316812
-0.00317357
-0.0031819
-0.00319453
-0.0032083
-0.00322489
-0.00324413
-0.00326348
-0.00328904
-0.00331028
-0.00334119
-0.00336592
-0.00339738
-0.00342894
-0.00345511
-0.00348543
-0.00349633
-0.00349419
0.00365353
0.00375456
0.00426837
0.00480318
0.00518365
0.00536299
0.00535282
0.00521182
0.00500985
0.00480308
0.00462201
0.00447785
0.00437076
0.00429216
0.00422995
0.00417089
0.00410701
0.00403188
0.00394625
0.00385115
0.00375091
0.00364655
0.00354156
0.00343794
0.00333609
0.00323453
0.00313263
0.00303428
0.00293439
0.00283431
0.00272771
0.00261671
0.00249833
0.00237582
0.00224746
0.00211121
0.00196595
0.00181138
0.00165902
0.00149594
0.00134249
0.00118153
0.00101918
0.000881864
0.000720772
0.000575765
0.000378943
0.00010858
-0.000171377
-0.000591626
-0.000963856
-0.00114522
-0.00149982
-0.00208735
-0.00261643
-0.0031076
-0.00370901
-0.00433715
-0.00493233
-0.00546108
-0.00583189
-0.00600172
-0.00590815
-0.00557542
-0.00514084
-0.00467477
-0.00426912
-0.00401404
-0.00386673
-0.00382238
-0.00385789
-0.00382758
-0.00369675
-0.00359584
-0.00356178
-0.00351789
-0.00343569
-0.00334427
-0.00327028
-0.00321792
-0.00318599
-0.00317227
-0.00316945
-0.00317474
-0.00318265
-0.00319486
-0.00320838
-0.00322489
-0.00324412
-0.00326347
-0.00328903
-0.00331028
-0.00334119
-0.00336593
-0.00339739
-0.00342895
-0.00345514
-0.0034855
-0.00349653
-0.00349421
0.00350557
0.003624
0.00415041
0.0046783
0.00503396
0.00517471
0.00512254
0.00494942
0.00473278
0.0045245
0.00435139
0.00422248
0.00413557
0.00407743
0.00403259
0.0039859
0.00392946
0.00385898
0.00377725
0.00368761
0.00359461
0.00349981
0.00340436
0.0033101
0.00321732
0.00312516
0.00303045
0.00293639
0.00284009
0.00274413
0.00264235
0.00253665
0.00242184
0.00230356
0.0021805
0.0020493
0.00191305
0.00176383
0.00161584
0.0014572
0.00130612
0.00114862
0.000982435
0.000840561
0.000671112
0.000512915
0.000316732
4.66667e-05
-0.000220104
-0.00060441
-0.000974946
-0.00118389
-0.00153127
-0.00208539
-0.00259501
-0.00307021
-0.00364441
-0.00424223
-0.00480435
-0.00530491
-0.00566157
-0.00583689
-0.00577459
-0.00548267
-0.00508495
-0.00465028
-0.00426355
-0.00401282
-0.00386556
-0.00381753
-0.00384643
-0.00381415
-0.00368734
-0.00358915
-0.00355436
-0.00351011
-0.00342878
-0.003342
-0.00327065
-0.00321977
-0.00318752
-0.00317322
-0.00316948
-0.00317425
-0.00318218
-0.00319464
-0.00320833
-0.0032249
-0.00324411
-0.00326347
-0.00328903
-0.00331027
-0.00334118
-0.00336593
-0.0033974
-0.00342898
-0.00345518
-0.00348559
-0.00349674
-0.00349424
0.00333489
0.00338903
0.00383871
0.00429815
0.00460995
0.00474074
0.0047136
0.00458939
0.00443039
0.00427811
0.00415248
0.00405854
0.0039927
0.0039441
0.00390262
0.00385785
0.00380421
0.00373875
0.00366437
0.00358413
0.0035018
0.00341752
0.00333122
0.00324354
0.0031552
0.00306692
0.00297465
0.00288125
0.00278361
0.00268676
0.00258425
0.00247912
0.00236514
0.00224677
0.00212496
0.00199468
0.00186201
0.00171678
0.00157253
0.00141629
0.00126741
0.00111496
0.000947035
0.000802601
0.000628991
0.000461459
0.000266956
-2.444e-06
-0.00025861
-0.000609918
-0.000978004
-0.00121381
-0.00155533
-0.00207542
-0.00256544
-0.00302697
-0.00357435
-0.00413983
-0.00466886
-0.00514319
-0.00548662
-0.00566577
-0.00563142
-0.0053781
-0.00501597
-0.0046125
-0.00424681
-0.00400354
-0.00385866
-0.00380845
-0.00383174
-0.00379874
-0.00367671
-0.00358145
-0.00354634
-0.00350279
-0.00342462
-0.0033398
-0.00327017
-0.00321995
-0.00318843
-0.00317431
-0.00317077
-0.00317548
-0.00318298
-0.00319496
-0.00320836
-0.00322485
-0.00324408
-0.00326345
-0.00328901
-0.00331027
-0.00334118
-0.00336594
-0.00339741
-0.003429
-0.00345523
-0.00348567
-0.00349694
-0.00349427
0.00519556
0.00512253
0.00464201
0.00414171
0.00378141
0.00359654
0.00356691
0.00363241
0.00372951
0.00381353
0.00386287
0.00387128
0.00384477
0.00379462
0.00373216
0.00366409
0.00359504
0.00352647
0.00345967
0.00339423
0.00332894
0.00326119
0.00318879
0.00311215
0.00303189
0.00295051
0.00286449
0.00277612
0.00268236
0.0025889
0.00249078
0.00239035
0.0022823
0.00216837