/*--------------------------------*- C++ -*----------------------------------*\
| =========                 |                                                 |
| \\      /  F ield         | OpenFOAM: The Open Source CFD Toolbox           |
|  \\    /   O peration     | Version:  2312                                  |
|   \\  /    A nd           | Website:  www.openfoam.com                      |
|    \\/     M anipulation  |                                                 |
\*---------------------------------------------------------------------------*/
FoamFile
{
    version     2.0;
    format      ascii;
    arch        "LSB;label=32;scalar=64";
    class       surfaceScalarField;
    location    "0.2";
    object      phi;
}
// * * * * * * * * * * * * * * * * * * * * * * * * * * * * * * * * * * * * * //

dimensions      [0 3 -1 0 0 0 0];

oriented        oriented;

internalField   nonuniform List<scalar> 
11020
(
3.87762e-06
-7.49161e-08
3.87679e-06
9.87689e-08
3.87688e-06
-3.22802e-09
3.87756e-06
-2.67551e-08
3.87903e-06
-1.5135e-07
3.87945e-06
-5.82796e-08
3.87836e-06
1.22247e-08
3.87695e-06
1.4691e-07
3.87492e-06
1.58409e-07
3.87455e-06
1.4936e-07
3.87307e-06
5.63614e-08
3.8729e-06
-2.26797e-08
3.87343e-06
-1.09062e-07
3.87356e-06
-1.39321e-07
3.87403e-06
-1.59962e-07
3.87469e-06
-1.38541e-07
3.875e-06
-1.15384e-07
3.87629e-06
-7.73598e-08
3.8766e-06
-4.60573e-08
3.87721e-06
-1.17698e-08
3.87741e-06
9.13212e-09
3.87768e-06
2.79033e-08
3.87699e-06
3.78991e-08
3.87638e-06
4.53948e-08
3.87524e-06
4.59416e-08
3.87417e-06
4.60177e-08
3.87318e-06
4.05369e-08
3.87225e-06
3.66678e-08
3.87133e-06
3.06426e-08
3.87033e-06
2.67242e-08
3.86913e-06
2.1662e-08
3.86766e-06
1.86024e-08
3.86589e-06
1.52772e-08
3.86397e-06
1.35205e-08
3.86183e-06
1.15757e-08
3.85955e-06
1.08353e-08
3.857e-06
1.00726e-08
3.85424e-06
1.03565e-08
3.85119e-06
1.08834e-08
1.22344e-08
3.84791e-06
4.18272e-06
-7.17775e-08
4.18787e-06
9.36163e-08
4.18495e-06
-3.05781e-10
4.18816e-06
-2.99596e-08
4.1837e-06
-1.46898e-07
4.18551e-06
-6.00851e-08
4.18223e-06
1.55083e-08
4.18661e-06
1.42525e-07
4.18571e-06
1.5931e-07
4.19113e-06
1.43944e-07
4.18925e-06
5.82366e-08
4.18977e-06
-2.3197e-08
4.18557e-06
-1.04869e-07
4.18319e-06
-1.36937e-07
4.17858e-06
-1.55352e-07
4.17703e-06
-1.36995e-07
4.17456e-06
-1.12912e-07
4.17562e-06
-7.84216e-08
4.17536e-06
-4.57955e-08
4.17715e-06
-1.35554e-08
4.17822e-06
8.06482e-09
4.18009e-06
2.60281e-08
4.18028e-06
3.7706e-08
4.18113e-06
4.45464e-08
4.18083e-06
4.62472e-08
4.18083e-06
4.60098e-08
4.18032e-06
4.10521e-08
4.18014e-06
3.68483e-08
4.1794e-06
3.13812e-08
4.1787e-06
2.74265e-08
4.17745e-06
2.29072e-08
4.17611e-06
1.99471e-08
4.17447e-06
1.69187e-08
4.17295e-06
1.50377e-08
4.17121e-06
1.33171e-08
4.16965e-06
1.23927e-08
4.168e-06
1.17213e-08
4.16675e-06
1.16097e-08
4.16582e-06
1.18071e-08
1.23778e-08
4.16568e-06
4.51593e-06
-6.76405e-08
4.52194e-06
8.75989e-08
4.52033e-06
1.30363e-09
4.52166e-06
-3.12829e-08
4.51339e-06
-1.38627e-07
4.51231e-06
-5.90054e-08
4.51007e-06
1.77451e-08
4.51723e-06
1.35365e-07
4.52193e-06
1.54609e-07
4.53002e-06
1.35854e-07
4.53144e-06
5.68182e-08
4.53129e-06
-2.30451e-08
4.52446e-06
-9.80394e-08
4.51855e-06
-1.31025e-07
4.50995e-06
-1.4676e-07
4.50465e-06
-1.31692e-07
4.49941e-06
-1.07667e-07
4.49779e-06
-7.68001e-08
4.49648e-06
-4.44878e-08
4.4977e-06
-1.47757e-08
4.49904e-06
6.72228e-09
4.50149e-06
2.35776e-08
4.50327e-06
3.59224e-08
4.50551e-06
4.23116e-08
4.50708e-06
4.46805e-08
4.50863e-06
4.44583e-08
4.5093e-06
4.03786e-08
4.50997e-06
3.61817e-08
4.50992e-06
3.14297e-08
4.50959e-06
2.77577e-08
4.50855e-06
2.3945e-08
4.50729e-06
2.12062e-08
4.50571e-06
1.84958e-08
4.50425e-06
1.65011e-08
4.50262e-06
1.49531e-08
4.50114e-06
1.3871e-08
4.49957e-06
1.32883e-08
4.49826e-06
1.29173e-08
4.4972e-06
1.28665e-08
1.28728e-08
4.49671e-06
4.87702e-06
-6.37126e-08
4.88289e-06
8.17277e-08
4.88254e-06
1.65524e-09
4.88255e-06
-3.12922e-08
4.87237e-06
-1.28449e-07
4.86912e-06
-5.57513e-08
4.86731e-06
1.95481e-08
4.87594e-06
1.26735e-07
4.88369e-06
1.46861e-07
4.89353e-06
1.26018e-07
4.89669e-06
5.36561e-08
4.89659e-06
-2.29447e-08
4.88935e-06
-9.08005e-08
4.88156e-06
-1.23235e-07
4.87136e-06
-1.36558e-07
4.86346e-06
-1.23796e-07
4.85655e-06
-1.00756e-07
4.85234e-06
-7.25884e-08
4.84994e-06
-4.20889e-08
4.84975e-06
-1.45833e-08
4.85061e-06
5.858e-09
4.85249e-06
2.16956e-08
4.85496e-06
3.34532e-08
4.85765e-06
3.96234e-08
4.86031e-06
4.2019e-08
4.86271e-06
4.20658e-08
4.86414e-06
3.89404e-08
4.86499e-06
3.53317e-08
4.86517e-06
3.12554e-08
4.86498e-06
2.79459e-08
4.86445e-06
2.44753e-08
4.86369e-06
2.19671e-08
4.86265e-06
1.95294e-08
4.86154e-06
1.76197e-08
4.86034e-06
1.61516e-08
4.85923e-06
1.49785e-08
4.85826e-06
1.42586e-08
4.85753e-06
1.36474e-08
4.8571e-06
1.33003e-08
1.29508e-08
4.85702e-06
5.26668e-06
-5.97486e-08
5.27274e-06
7.56673e-08
5.2726e-06
1.80321e-09
5.27236e-06
-3.10577e-08
5.26137e-06
-1.1746e-07
5.25746e-06
-5.18438e-08
5.25562e-06
2.13895e-08
5.26489e-06
1.17472e-07
5.27354e-06
1.38209e-07
5.28408e-06
1.15478e-07
5.28774e-06
4.9998e-08
5.2876e-06
-2.28113e-08
5.28048e-06
-8.36783e-08
5.27207e-06
-1.14826e-07
5.26146e-06
-1.25949e-07
5.25258e-06
-1.14914e-07
5.24488e-06
-9.30523e-08
5.23955e-06
-6.72607e-08
5.2363e-06
-3.8837e-08
5.23533e-06
-1.3613e-08
5.23565e-06
5.5389e-09
5.23709e-06
2.0246e-08
5.23944e-06
3.11071e-08
5.24215e-06
3.69168e-08
5.24481e-06
3.93587e-08
5.24739e-06
3.94847e-08
5.24914e-06
3.71943e-08
5.25031e-06
3.41572e-08
5.25082e-06
3.07496e-08
5.25089e-06
2.78685e-08
5.25055e-06
2.48218e-08
5.25002e-06
2.24976e-08
5.24925e-06
2.02989e-08
5.24837e-06
1.84976e-08
5.24742e-06
1.71006e-08
5.24651e-06
1.58887e-08
5.24571e-06
1.50589e-08
5.24508e-06
1.42805e-08
5.24466e-06
1.37209e-08
1.31531e-08
5.24445e-06
5.68736e-06
-5.56533e-08
5.6936e-06
6.9433e-08
5.69333e-06
2.0759e-09
5.69306e-06
-3.07877e-08
5.68191e-06
-1.06316e-07
5.67791e-06
-4.78412e-08
5.67615e-06
2.31476e-08
5.68546e-06
1.08166e-07
5.69433e-06
1.29338e-07
5.70473e-06
1.0508e-07
5.70857e-06
4.61509e-08
5.70805e-06
-2.229e-08
5.70131e-06
-7.69353e-08
5.69253e-06
-1.06045e-07
5.68211e-06
-1.15531e-07
5.6729e-06
-1.05706e-07
5.6651e-06
-8.52518e-08
5.65934e-06
-6.15024e-08
5.65585e-06
-3.53469e-08
5.65452e-06
-1.22823e-08
5.65454e-06
5.51677e-09
5.65569e-06
1.91035e-08
5.65783e-06
2.89635e-08
5.66032e-06
3.44279e-08
5.66276e-06
3.69173e-08
5.66516e-06
3.70852e-08
5.66683e-06
3.55297e-08
5.66793e-06
3.30564e-08
5.66852e-06
3.01583e-08
5.66876e-06
2.76274e-08
5.66858e-06
2.5001e-08
5.6682e-06
2.28721e-08
5.66763e-06
2.08732e-08
5.66692e-06
1.9203e-08
5.66619e-06
1.78363e-08
5.6655e-06
1.65789e-08
5.66495e-06
1.5608e-08
5.66458e-06
1.46549e-08
5.66441e-06
1.38907e-08
1.30915e-08
5.66447e-06
6.14162e-06
-5.14001e-08
6.14805e-06
6.30016e-08
6.14751e-06
2.61293e-09
6.14726e-06
-3.05368e-08
6.13606e-06
-9.51206e-08
6.13214e-06
-4.39192e-08
6.13053e-06
2.47603e-08
6.13973e-06
9.89668e-08
6.14872e-06
1.20346e-07
6.1588e-06
9.49965e-08
6.16277e-06
4.21848e-08
6.16187e-06
-2.13875e-08
6.15523e-06
-7.02968e-08
6.14636e-06
-9.71791e-08
6.13598e-06
-1.05149e-07
6.12671e-06
-9.64361e-08
6.11884e-06
-7.73802e-08
6.11302e-06
-5.56775e-08
6.10943e-06
-3.17563e-08
6.10792e-06
-1.07729e-08
6.10781e-06
5.62596e-09
6.10884e-06
1.80712e-08
6.11074e-06
2.70641e-08
6.11302e-06
3.21417e-08
6.11516e-06
3.47774e-08
6.11731e-06
3.49391e-08
6.1189e-06
3.3942e-08
6.12004e-06
3.19195e-08
6.12068e-06
2.95102e-08
6.12099e-06
2.73183e-08
6.12094e-06
2.50505e-08
6.12068e-06
2.31381e-08
6.12021e-06
2.13383e-08
6.11962e-06
1.97958e-08
6.11897e-06
1.84868e-08
6.11833e-06
1.72187e-08
6.11778e-06
1.61531e-08
6.11739e-06
1.50504e-08
6.11719e-06
1.40914e-08
1.30678e-08
6.11721e-06
6.63219e-06
-4.70326e-08
6.63872e-06
5.64762e-08
6.63796e-06
3.372e-09
6.63764e-06
-3.02141e-08
6.62664e-06
-8.41232e-08
6.62277e-06
-4.00511e-08
6.62148e-06
2.60548e-08
6.63029e-06
9.01523e-08
6.63944e-06
1.11194e-07
6.6489e-06
8.55424e-08
6.65281e-06
3.82756e-08
6.65171e-06
-2.0288e-08
6.64499e-06
-6.35773e-08
6.63638e-06
-8.85689e-08
6.62593e-06
-9.47028e-08
6.61694e-06
-8.74478e-08
6.60902e-06
-6.94582e-08
6.60336e-06
-5.00149e-08
6.59962e-06
-2.80169e-08
6.59811e-06
-9.26438e-09
6.59774e-06
5.99833e-09
6.59869e-06
1.71208e-08
6.60026e-06
2.54936e-08
6.60238e-06
3.00208e-08
6.60422e-06
3.29334e-08
6.6062e-06
3.29616e-08
6.60763e-06
3.25094e-08
6.6087e-06
3.08522e-08
6.6093e-06
2.89163e-08
6.60964e-06
2.6973e-08
6.60962e-06
2.50759e-08
6.6094e-06
2.33502e-08
6.60896e-06
2.17803e-08
6.60843e-06
2.03302e-08
6.60781e-06
1.9107e-08
6.60723e-06
1.77964e-08
6.60671e-06
1.6671e-08
6.60633e-06
1.54313e-08
6.60591e-06
1.45106e-08
1.32691e-08
6.60571e-06
7.16195e-06
-4.25518e-08
7.16857e-06
4.98582e-08
7.16758e-06
4.35929e-09
7.16717e-06
-2.98005e-08
7.15642e-06
-7.33739e-08
7.15253e-06
-3.61659e-08
7.15165e-06
2.69407e-08
7.1599e-06
8.1894e-08
7.16943e-06
1.01665e-07
7.17815e-06
7.68276e-08
7.18206e-06
3.43595e-08
7.18068e-06
-1.89085e-08
7.17404e-06
-5.69332e-08
7.16544e-06
-7.99727e-08
7.15518e-06
-8.44427e-08
7.1462e-06
-7.84631e-08
7.13835e-06
-6.16104e-08
7.13269e-06
-4.4353e-08
7.12897e-06
-2.42941e-08
7.12733e-06
-7.62388e-09
7.1268e-06
6.52184e-09
7.12759e-06
1.63297e-08
7.12888e-06
2.4205e-08
7.13075e-06
2.81547e-08
7.13244e-06
3.12413e-08
7.13424e-06
3.11639e-08
7.13566e-06
3.10885e-08
7.13677e-06
2.97433e-08
7.13749e-06
2.81924e-08
7.13793e-06
2.65399e-08
7.13798e-06
2.50222e-08
7.13776e-06
2.35658e-08
7.13726e-06
2.22829e-08
7.13658e-06
2.10093e-08
7.13574e-06
1.99517e-08
7.13481e-06
1.8721e-08
7.13382e-06
1.76622e-08
7.13296e-06
1.62925e-08
7.13282e-06
1.46506e-08
1.25955e-08
7.13349e-06
7.73407e-06
-3.80173e-08
7.74066e-06
4.32646e-08
7.73951e-06
5.51209e-09
7.73887e-06
-2.91645e-08
7.72868e-06
-6.3179e-08
7.72464e-06
-3.21294e-08
7.72443e-06
2.71545e-08
7.73179e-06
7.45307e-08
7.74164e-06
9.18159e-08
7.74937e-06
6.90973e-08
7.75338e-06
3.03487e-08
7.75133e-06
-1.68578e-08
7.74538e-06
-5.09764e-08
7.73639e-06
-7.09903e-08
7.72688e-06
-7.49257e-08
7.71768e-06
-6.92643e-08
7.71044e-06
-5.43762e-08
7.70453e-06
-3.84383e-08
7.70103e-06
-2.07995e-08
7.69912e-06
-5.7093e-09
7.6986e-06
7.03925e-09
7.69902e-06
1.59158e-08
7.7002e-06
2.30183e-08
7.70163e-06
2.67257e-08
7.7032e-06
2.96685e-08
7.70461e-06
2.97611e-08
7.70597e-06
2.97277e-08
7.70688e-06
2.8833e-08
7.70766e-06
2.74133e-08
7.70821e-06
2.59924e-08
7.70877e-06
2.44616e-08
7.70938e-06
2.2956e-08
7.71018e-06
2.14782e-08
7.71114e-06
2.0049e-08
7.71227e-06
1.88252e-08
7.71342e-06
1.75654e-08
7.71459e-06
1.64967e-08
7.71557e-06
1.53066e-08
7.71581e-06
1.44173e-08
1.31268e-08
7.71528e-06
8.35189e-06
-3.34504e-08
8.35841e-06
3.67466e-08
8.35718e-06
6.74111e-09
8.35624e-06
-2.8221e-08
8.34672e-06
-5.36603e-08
8.34229e-06
-2.76942e-08
8.34283e-06
2.6614e-08
8.34951e-06
6.78464e-08
8.35925e-06
8.20717e-08
8.36645e-06
6.19011e-08
8.37027e-06
2.65253e-08
8.36796e-06
-1.45404e-08
8.36223e-06
-4.52474e-08
8.35324e-06
-6.20012e-08
8.34411e-06
-6.5793e-08
8.33496e-06
-6.01221e-08
8.3279e-06
-4.73091e-08
8.32202e-06
-3.25603e-08
8.31854e-06
-1.73169e-08
8.31651e-06
-3.68612e-09
8.31587e-06
7.68206e-09
8.31603e-06
1.57575e-08
8.31707e-06
2.19733e-08
8.31829e-06
2.55036e-08
8.31982e-06
2.81461e-08
8.32106e-06
2.85137e-08
8.3224e-06
2.83907e-08
8.32333e-06
2.79039e-08
8.32424e-06
2.65041e-08
8.32501e-06
2.52174e-08
8.32592e-06
2.35542e-08
8.32674e-06
2.21346e-08
8.32758e-06
2.06382e-08
8.32835e-06
1.92781e-08
8.32903e-06
1.81486e-08
8.32964e-06
1.696e-08
8.33021e-06
1.59201e-08
8.33073e-06
1.47903e-08
8.33137e-06
1.37723e-08
1.25666e-08
8.33193e-06
9.01912e-06
-2.8928e-08
9.02543e-06
3.04393e-08
9.02427e-06
7.90207e-09
9.02283e-06
-2.67765e-08
9.0143e-06
-4.51294e-08
9.00941e-06
-2.28082e-08
9.01064e-06
2.53843e-08
9.01683e-06
6.16533e-08
9.02601e-06
7.28919e-08
9.03276e-06
5.51534e-08
9.03596e-06
2.33237e-08
9.03372e-06
-1.22973e-08
9.02786e-06
-3.93859e-08
9.01947e-06
-5.36119e-08
9.01043e-06
-5.67561e-08
9.00181e-06
-5.15038e-08
8.99484e-06
-4.03334e-08
8.98934e-06
-2.70599e-08
8.98566e-06
-1.36393e-08
8.98367e-06
-1.69629e-09
8.98286e-06
8.49225e-09
8.98285e-06
1.5766e-08
8.98366e-06
2.11636e-08
8.98472e-06
2.44395e-08
8.98606e-06
2.6807e-08
8.98723e-06
2.73429e-08
8.98853e-06
2.70995e-08
8.98975e-06
2.66742e-08
8.99093e-06
2.53262e-08
8.99205e-06
2.41023e-08
8.99298e-06
2.26194e-08
8.99375e-06
2.13624e-08
8.9943e-06
2.00926e-08
8.99476e-06
1.8814e-08
8.99523e-06
1.76789e-08
8.99569e-06
1.64997e-08
8.99611e-06
1.55089e-08
8.99645e-06
1.44508e-08
8.99669e-06
1.35317e-08
1.26358e-08
8.99662e-06
9.73968e-06
-2.45011e-08
9.74567e-06
2.44486e-08
9.7449e-06
8.66948e-09
9.74272e-06
-2.45963e-08
9.73523e-06
-3.76436e-08
9.73003e-06
-1.76057e-08
9.7315e-06
2.39115e-08
9.7374e-06
5.57576e-08
9.74598e-06
6.43143e-08
9.75229e-06
4.88404e-08
9.75503e-06
2.05826e-08
9.75281e-06
-1.00763e-08
9.74694e-06
-3.35184e-08
9.73892e-06
-4.55922e-08
9.73017e-06
-4.80063e-08
9.72188e-06
-4.32153e-08
9.71499e-06
-3.34395e-08
9.70967e-06
-2.17419e-08
9.70604e-06
-1.00065e-08
9.70393e-06
4.11394e-10
9.70307e-06
9.35609e-09
9.70293e-06
1.59058e-08
9.70358e-06
2.05109e-08
9.7046e-06
2.34171e-08
9.70596e-06
2.54458e-08
9.70728e-06
2.60314e-08
9.70869e-06
2.56868e-08
9.71e-06
2.53652e-08
9.71106e-06
2.42663e-08
9.71196e-06
2.32041e-08
9.71267e-06
2.19046e-08
9.71332e-06
2.07173e-08
9.71385e-06
1.95538e-08
9.71433e-06
1.83344e-08
9.71474e-06
1.72756e-08
9.71506e-06
1.61788e-08
9.71532e-06
1.52435e-08
9.7155e-06
1.42746e-08
9.71562e-06
1.34105e-08
1.25206e-08
9.71574e-06
1.05178e-05
-2.02708e-08
1.05234e-05
1.89244e-08
1.05234e-05
8.68034e-09
1.05201e-05
-2.13767e-08
1.05135e-05
-3.10499e-08
1.05086e-05
-1.26209e-08
1.05099e-05
2.25457e-08
1.05157e-05
5.00045e-08
1.05234e-05
5.66032e-08
1.05292e-05
4.30669e-08
1.05313e-05
1.8426e-08
1.0529e-05
-7.78719e-09
1.05233e-05
-2.7812e-08
1.05157e-05
-3.79539e-08
1.05074e-05
-3.96884e-08
1.04995e-05
-3.53589e-08
1.0493e-05
-2.68915e-08
1.04879e-05
-1.66462e-08
1.04844e-05
-6.5184e-09
1.04822e-05
2.63419e-09
1.04813e-05
1.02562e-08
1.04811e-05
1.60687e-08
1.04816e-05
2.00598e-08
1.04825e-05
2.25074e-08
1.04836e-05
2.42733e-08
1.04848e-05
2.48926e-08
1.04859e-05
2.45766e-08
1.0487e-05
2.42335e-08
1.04879e-05
2.33309e-08
1.04888e-05
2.23247e-08
1.04895e-05
2.11884e-08
1.04902e-05
2.00703e-08
1.04907e-05
1.90234e-08
1.04912e-05
1.78979e-08
1.04915e-05
1.69083e-08
1.04918e-05
1.58695e-08
1.04921e-05
1.49814e-08
1.04923e-05
1.40363e-08
1.04926e-05
1.31882e-08
1.23439e-08
1.04927e-05
1.13582e-05
-1.62965e-08
1.13631e-05
1.39855e-08
1.13636e-05
8.16846e-09
1.13598e-05
-1.75692e-08
1.13539e-05
-2.5113e-08
1.13493e-05
-8.04004e-09
1.13504e-05
2.14543e-08
1.13559e-05
4.44962e-08
1.13629e-05
4.96415e-08
1.13681e-05
3.78216e-08
1.13698e-05
1.67449e-08
1.13675e-05
-5.4797e-09
1.1362e-05
-2.22766e-08
1.13547e-05
-3.06921e-08
1.13468e-05
-3.17917e-08
1.13394e-05
-2.79034e-08
1.13331e-05
-2.05953e-08
1.13281e-05
-1.17032e-08
1.13248e-05
-3.16164e-09
1.13226e-05
4.78413e-09
1.13216e-05
1.12895e-08
1.13214e-05
1.62435e-08
1.13217e-05
1.97795e-08
1.13224e-05
2.17692e-08
1.13234e-05
2.3272e-08
1.13245e-05
2.38281e-08
1.13255e-05
2.35666e-08
1.13265e-05
2.31804e-08
1.13274e-05
2.24323e-08
1.13283e-05
2.15189e-08
1.13289e-05
2.05099e-08
1.13295e-05
1.94677e-08
1.13301e-05
1.85016e-08
1.13305e-05
1.74586e-08
1.13309e-05
1.6513e-08
1.13312e-05
1.55379e-08
1.13316e-05
1.46507e-08
1.13318e-05
1.37446e-08
1.13321e-05
1.29063e-08
1.20671e-08
1.13324e-05
1.22657e-05
-1.26675e-08
1.22699e-05
9.7503e-09
1.22707e-05
7.4182e-09
1.22667e-05
-1.36079e-08
1.22613e-05
-1.96568e-08
1.22573e-05
-4.07994e-09
1.22582e-05
2.05723e-08
1.22633e-05
3.94222e-08
1.22695e-05
4.33999e-08
1.2274e-05
3.33164e-08
1.22752e-05
1.55524e-08
1.22728e-05
-3.04145e-09
1.22675e-05
-1.69871e-08
1.22607e-05
-2.38749e-08
1.22533e-05
-2.44119e-08
1.22463e-05
-2.09008e-08
1.22405e-05
-1.47877e-08
1.22358e-05
-7.05295e-09
1.22326e-05
7.73598e-11
1.22306e-05
6.78965e-09
1.22294e-05
1.24966e-08
1.22291e-05
1.64826e-08
1.22293e-05
1.959e-08
1.22299e-05
2.12347e-08
1.22307e-05
2.24192e-08
1.22316e-05
2.29088e-08
1.22325e-05
2.26943e-08
1.22334e-05
2.23105e-08
1.22342e-05
2.16383e-08
1.22349e-05
2.08202e-08
1.22355e-05
1.98835e-08
1.2236e-05
1.89145e-08
1.22366e-05
1.79817e-08
1.2237e-05
1.70208e-08
1.22374e-05
1.6093e-08
1.22378e-05
1.51684e-08
1.22382e-05
1.42866e-08
1.22385e-05
1.3431e-08
1.22388e-05
1.26087e-08
1.18592e-08
1.2239e-05
1.32457e-05
-9.44401e-09
1.32491e-05
6.36678e-09
1.32501e-05
6.4541e-09
1.32463e-05
-9.82888e-09
1.32411e-05
-1.45306e-08
1.32377e-05
-6.67484e-10
1.32384e-05
1.99011e-08
1.32429e-05
3.49201e-08
1.32485e-05
3.78402e-08
1.32523e-05
2.94548e-08
1.32531e-05
1.47569e-08
1.32506e-05
-5.61229e-10
1.32456e-05
-1.19506e-08
1.32392e-05
-1.74716e-08
1.32324e-05
-1.75998e-08
1.32258e-05
-1.43424e-08
1.32204e-05
-9.31517e-09
1.3216e-05
-2.69114e-09
1.32128e-05
3.25941e-09
1.3211e-05
8.65041e-09
1.32098e-05
1.37054e-08
1.32094e-05
1.68814e-08
1.32095e-05
1.94622e-08
1.32099e-05
2.08567e-08
1.32105e-05
2.17343e-08
1.32113e-05
2.21473e-08
1.32121e-05
2.19121e-08
1.32129e-05
2.15392e-08
1.32136e-05
2.08879e-08
1.32143e-05
2.01552e-08
1.32149e-05
1.92522e-08
1.32155e-05
1.83575e-08
1.3216e-05
1.7441e-08
1.32165e-05
1.65523e-08
1.32169e-05
1.56479e-08
1.32173e-05
1.47781e-08
1.32177e-05
1.39142e-08
1.3218e-05
1.31021e-08
1.32183e-05
1.23028e-08
1.15314e-08
1.32186e-05
1.4304e-05
-6.69945e-09
1.43063e-05
4.09422e-09
1.43075e-05
5.25378e-09
1.43041e-05
-6.45556e-09
1.42993e-05
-9.73131e-09
1.42964e-05
2.24304e-09
1.4297e-05
1.92917e-08
1.43009e-05
3.10429e-08
1.43057e-05
3.30485e-08
1.43089e-05
2.62631e-08
1.43092e-05
1.44182e-08
1.43066e-05
2.0087e-09
1.43018e-05
-7.17859e-09
1.42959e-05
-1.15488e-08
1.42897e-05
-1.13821e-08
1.42837e-05
-8.31405e-09
1.42786e-05
-4.24801e-09
1.42747e-05
1.18934e-09
1.42717e-05
6.32004e-09
1.42699e-05
1.04545e-08
1.42688e-05
1.48053e-08
1.42682e-05
1.74757e-08
1.42682e-05
1.94133e-08
1.42685e-05
2.06067e-08
1.4269e-05
2.12048e-08
1.42696e-05
2.15253e-08
1.42703e-05
2.12364e-08
1.4271e-05
2.08689e-08
1.42716e-05
2.02168e-08
1.42723e-05
1.95415e-08
1.42728e-05
1.86714e-08
1.42734e-05
1.7819e-08
1.42739e-05
1.69207e-08
1.42744e-05
1.60705e-08
1.42748e-05
1.52002e-08
1.42752e-05
1.43653e-08
1.42756e-05
1.35301e-08
1.4276e-05
1.27377e-08
1.42763e-05
1.19607e-08
1.12092e-08
1.42766e-05
1.54467e-05
-4.44783e-09
1.54478e-05
3.01096e-09
1.54492e-05
3.857e-09
1.54464e-05
-3.65967e-09
1.5442e-05
-5.33188e-09
1.54395e-05
4.81132e-09
1.544e-05
1.87765e-08
1.54432e-05
2.78215e-08
1.54472e-05
2.90282e-08
1.54498e-05
2.36563e-08
1.54498e-05
1.44066e-08
1.54473e-05
4.57839e-09
1.54428e-05
-2.71495e-09
1.54373e-05
-6.07045e-09
1.54317e-05
-5.73934e-09
1.54262e-05
-2.87503e-09
1.54215e-05
4.97163e-10
1.54179e-05
4.75627e-09
1.54151e-05
9.15327e-09
1.54133e-05
1.22725e-08
1.54123e-05
1.57641e-08
1.54117e-05
1.81291e-08
1.54116e-05
1.9497e-08
1.54117e-05
2.04471e-08
1.54122e-05
2.0785e-08
1.54127e-05
2.09875e-08
1.54133e-05
2.0636e-08
1.54139e-05
2.02461e-08
1.54146e-05
1.95924e-08
1.54152e-05
1.89348e-08
1.54157e-05
1.8105e-08
1.54163e-05
1.7275e-08
1.54168e-05
1.64082e-08
1.54173e-05
1.55755e-08
1.54177e-05
1.47445e-08
1.54182e-05
1.39303e-08
1.54186e-05
1.31314e-08
1.54189e-05
1.23539e-08
1.54193e-05
1.16082e-08
1.08716e-08
1.54196e-05
1.66807e-05
-2.67941e-09
1.66811e-05
2.64952e-09
1.66821e-05
2.82673e-09
1.66798e-05
-1.42227e-09
1.6676e-05
-1.4977e-09
1.66738e-05
7.06685e-09
1.66742e-05
1.83302e-08
1.66768e-05
2.51841e-08
1.66801e-05
2.57968e-08
1.66821e-05
2.16666e-08
1.66817e-05
1.47191e-08
1.66792e-05
7.17238e-09
1.6675e-05
1.45888e-09
1.667e-05
-1.08831e-09
1.66649e-05
-6.61474e-10
1.66601e-05
1.92989e-09
1.66558e-05
4.81944e-09
1.66526e-05
7.97165e-09
1.66501e-05
1.16199e-08
1.66483e-05
1.40996e-08
1.66474e-05
1.66576e-08
1.66468e-05
1.87299e-08
1.66466e-05
1.96901e-08
1.66467e-05
2.03446e-08
1.6647e-05
2.04531e-08
1.66475e-05
2.05121e-08
1.6648e-05
2.01329e-08
1.66486e-05
1.96874e-08
1.66491e-05
1.904e-08
1.66497e-05
1.83601e-08
1.66502e-05
1.75759e-08
1.66507e-05
1.67496e-08
1.66512e-05
1.5918e-08
1.66517e-05
1.50848e-08
1.66522e-05
1.42867e-08
1.66526e-05
1.34855e-08
1.6653e-05
1.27223e-08
1.66534e-05
1.19608e-08
1.66538e-05
1.12445e-08
1.05231e-08
1.66541e-05
1.8013e-05
-1.31164e-09
1.8013e-05
2.67188e-09
1.80134e-05
2.45611e-09
1.80117e-05
2.78064e-10
1.80085e-05
1.65242e-09
1.80065e-05
9.05895e-09
1.80068e-05
1.80534e-08
1.80089e-05
2.31219e-08
1.80114e-05
2.32974e-08
1.80128e-05
2.02177e-08
1.80123e-05
1.52483e-08
1.80098e-05
9.6728e-09
1.8006e-05
5.29439e-09
1.80015e-05
3.40766e-09
1.79969e-05
3.88459e-09
1.79927e-05
6.13798e-09
1.79889e-05
8.66897e-09
1.79859e-05
1.09675e-08
1.79837e-05
1.37806e-08
1.7982e-05
1.57899e-08
1.79811e-05
1.75379e-08
1.79806e-05
1.92234e-08
1.79804e-05
1.99239e-08
1.79804e-05
2.03042e-08
1.79807e-05
2.02044e-08
1.79811e-05
2.00765e-08
1.79816e-05
1.96655e-08
1.79821e-05
1.91537e-08
1.79827e-05
1.85209e-08
1.79832e-05
1.7805e-08
1.79837e-05
1.7054e-08
1.79843e-05
1.62249e-08
1.79847e-05
1.54249e-08
1.79852e-05
1.45957e-08
1.79857e-05
1.38254e-08
1.79861e-05
1.30388e-08
1.79866e-05
1.23037e-08
1.7987e-05
1.1561e-08
1.79873e-05
1.08691e-08
1.01678e-08
1.79877e-05
1.94517e-05
-2.84434e-10
1.94514e-05
2.90011e-09
1.94512e-05
2.70555e-09
1.94498e-05
1.70251e-09
1.94473e-05
4.09828e-09
1.94457e-05
1.07151e-08
1.94458e-05
1.79345e-08
1.94473e-05
2.15795e-08
1.94492e-05
2.14614e-08
1.94501e-05
1.92809e-08
1.94493e-05
1.59861e-08
1.94469e-05
1.20818e-08
1.94434e-05
8.80751e-09
1.94394e-05
7.39677e-09
1.94355e-05
7.87093e-09
1.94318e-05
9.78138e-09
1.94285e-05
1.19811e-08
1.94258e-05
1.36607e-08
1.9424e-05
1.56216e-08
1.94225e-05
1.72477e-08
1.94216e-05
1.84238e-08
1.94212e-05
1.9633e-08
1.9421e-05
2.01294e-08
1.9421e-05
2.02722e-08
1.94212e-05
2.00072e-08
1.94216e-05
1.96891e-08
1.94221e-05
1.92306e-08
1.94226e-05
1.86573e-08
1.9423e-05
1.80289e-08
1.94236e-05
1.72862e-08
1.94241e-05
1.65475e-08
1.94246e-05
1.57238e-08
1.94251e-05
1.49412e-08
1.94255e-05
1.4123e-08
1.9426e-05
1.33659e-08
1.94264e-05
1.25975e-08
1.94269e-05
1.18802e-08
1.94272e-05
1.11617e-08
1.94276e-05
1.04884e-08
9.81096e-09
1.9428e-05
2.1005e-05
5.09538e-10
2.10047e-05
3.18607e-09
2.10041e-05
3.36848e-09
2.10027e-05
3.08483e-09
2.10009e-05
5.90952e-09
2.09996e-05
1.20146e-08
2.09995e-05
1.80009e-08
2.10005e-05
2.05649e-08
2.10018e-05
2.02111e-08
2.10023e-05
1.87377e-08
2.10015e-05
1.68247e-08
2.09992e-05
1.43257e-08
2.09961e-05
1.19451e-08
2.09926e-05
1.08763e-08
2.09891e-05
1.13302e-08
2.0986e-05
1.28969e-08
2.09833e-05
1.47509e-08
2.09809e-05
1.60426e-08
2.09792e-05
1.72642e-08
2.0978e-05
1.84473e-08
2.09773e-05
1.92092e-08
2.09769e-05
1.99695e-08
2.09768e-05
2.02791e-08
2.09768e-05
2.02311e-08
2.0977e-05
1.98379e-08
2.09773e-05
1.93376e-08
2.09778e-05
1.88062e-08
2.09782e-05
1.81679e-08
2.09787e-05
1.75325e-08
2.09792e-05
1.67836e-08
2.09797e-05
1.60451e-08
2.09802e-05
1.52315e-08
2.09807e-05
1.44547e-08
2.09812e-05
1.36558e-08
2.09817e-05
1.29056e-08
2.09821e-05
1.21597e-08
2.09825e-05
1.14551e-08
2.09829e-05
1.07623e-08
2.09833e-05
1.01043e-08
9.45242e-09
2.09837e-05
2.26823e-05
1.14531e-09
2.2682e-05
3.46378e-09
2.26811e-05
4.2758e-09
2.26797e-05
4.53322e-09
2.26783e-05
7.25568e-09
2.26774e-05
1.29341e-08
2.26772e-05
1.81563e-08
2.26778e-05
2.00258e-08
2.26785e-05
1.9485e-08
2.26787e-05
1.85114e-08
2.26778e-05
1.77115e-08
2.26758e-05
1.63821e-08
2.2673e-05
1.47383e-08
2.267e-05
1.38708e-08
2.26671e-05
1.42205e-08
2.26645e-05
1.54867e-08
2.26622e-05
1.70251e-08
2.26603e-05
1.80297e-08
2.26588e-05
1.8678e-08
2.26579e-05
1.9375e-08
2.26573e-05
1.98504e-08
2.2657e-05
2.02428e-08
2.26569e-05
2.03538e-08
2.2657e-05
2.01461e-08
2.26572e-05
1.96483e-08
2.26575e-05
1.90042e-08
2.2658e-05
1.83852e-08
2.26584e-05
1.77034e-08
2.26589e-05
1.70373e-08
2.26594e-05
1.62921e-08
2.26599e-05
1.55503e-08
2.26604e-05
1.4752e-08
2.26609e-05
1.3976e-08
2.26613e-05
1.31954e-08
2.26618e-05
1.24528e-08
2.26622e-05
1.1727e-08
2.26626e-05
1.10342e-08
2.2663e-05
1.03641e-08
2.26634e-05
9.72229e-09
9.09416e-09
2.26638e-05
2.44934e-05
1.69081e-09
2.44931e-05
3.71961e-09
2.44922e-05
5.2456e-09
2.44907e-05
6.0312e-09
2.44896e-05
8.3475e-09
2.4489e-05
1.35155e-08
2.44888e-05
1.83369e-08
2.44889e-05
1.99196e-08
2.44892e-05
1.9235e-08
2.44892e-05
1.85119e-08
2.44884e-05
1.85127e-08
2.44866e-05
1.81784e-08
2.44842e-05
1.71663e-08
2.44816e-05
1.64067e-08
2.44792e-05
1.6592e-08
2.44772e-05
1.75694e-08
2.44754e-05
1.88074e-08
2.44738e-05
1.962e-08
2.44726e-05
1.98821e-08
2.44719e-05
2.01055e-08
2.44714e-05
2.02778e-08
2.44713e-05
2.03987e-08
2.44713e-05
2.03362e-08
2.44714e-05
2e-08
2.44717e-05
1.94258e-08
2.4472e-05
1.86875e-08
2.44724e-05
1.79581e-08
2.44729e-05
1.72274e-08
2.44734e-05
1.65311e-08
2.44739e-05
1.5795e-08
2.44744e-05
1.50484e-08
2.44749e-05
1.42721e-08
2.44753e-05
1.35009e-08
2.44758e-05
1.27371e-08
2.44762e-05
1.2002e-08
2.44767e-05
1.12949e-08
2.44771e-05
1.06162e-08
2.44775e-05
9.96729e-09
2.44779e-05
9.34391e-09
8.73453e-09
2.44782e-05
2.64491e-05
2.16479e-09
2.64488e-05
3.9911e-09
2.64479e-05
6.15275e-09
2.64464e-05
7.54087e-09
2.64454e-05
9.3725e-09
2.64451e-05
1.38277e-08
2.6445e-05
1.84267e-08
2.64448e-05
2.01068e-08
2.64446e-05
1.94069e-08
2.64444e-05
1.87431e-08
2.64437e-05
1.91641e-08
2.64423e-05
1.96437e-08
2.64402e-05
1.92417e-08
2.64381e-05
1.85375e-08
2.64362e-05
1.84961e-08
2.64346e-05
1.91379e-08
2.64333e-05
2.01155e-08
2.64321e-05
2.07813e-08
2.64312e-05
2.08266e-08
2.64306e-05
2.06461e-08
2.64304e-05
2.05159e-08
2.64304e-05
2.03844e-08
2.64306e-05
2.01759e-08
2.64308e-05
1.97558e-08
2.64311e-05
1.91363e-08
2.64314e-05
1.836e-08
2.64318e-05
1.75514e-08
2.64323e-05
1.67552e-08
2.64328e-05
1.60111e-08
2.64334e-05
1.52757e-08
2.64339e-05
1.45364e-08
2.64344e-05
1.3783e-08
2.64348e-05
1.30265e-08
2.64353e-05
1.2281e-08
2.64357e-05
1.15568e-08
2.64362e-05
1.0864e-08
2.64366e-05
1.02001e-08
2.6437e-05
9.56878e-09
2.64374e-05
8.96411e-09
8.37894e-09
2.64377e-05
2.85609e-05
2.55149e-09
2.85606e-05
4.34766e-09
2.85598e-05
6.90166e-09
2.85584e-05
8.95357e-09
2.85573e-05
1.04607e-08
2.85571e-05
1.4017e-08
2.85572e-05
1.83836e-08
2.85569e-05
2.04254e-08
2.85564e-05
1.99168e-08
2.85559e-05
1.92066e-08
2.85554e-05
1.96483e-08
2.85544e-05
2.06968e-08
2.85527e-05
2.0895e-08
2.85509e-05
2.02939e-08
2.85494e-05
2.00043e-08
2.85483e-05
2.02978e-08
2.85474e-05
2.09393e-08
2.85467e-05
2.14834e-08
2.85461e-05
2.14652e-08
2.85457e-05
2.10477e-08
2.85456e-05
2.05953e-08
2.85458e-05
2.0206e-08
2.85461e-05
1.98587e-08
2.85465e-05
1.93803e-08
2.85469e-05
1.87405e-08
2.85473e-05
1.79584e-08
2.85477e-05
1.71182e-08
2.85482e-05
1.62894e-08
2.85487e-05
1.54973e-08
2.85492e-05
1.4745e-08
2.85498e-05
1.40062e-08
2.85503e-05
1.32731e-08
2.85508e-05
1.25381e-08
2.85512e-05
1.18145e-08
2.85517e-05
1.11096e-08
2.85521e-05
1.04351e-08
2.85525e-05
9.7908e-09
2.85529e-05
9.1789e-09
2.85533e-05
8.59578e-09
8.01933e-09
2.85536e-05
3.08414e-05
2.825e-09
3.08409e-05
4.85512e-09
3.08403e-05
7.46376e-09
3.08391e-05
1.01601e-08
3.08379e-05
1.16636e-08
3.08377e-05
1.42298e-08
3.08379e-05
1.81815e-08
3.08376e-05
2.06967e-08
3.08369e-05
2.06164e-08
3.08363e-05
1.98778e-08
3.08358e-05
2.01069e-08
3.08352e-05
2.1302e-08
3.08341e-05
2.203e-08
3.08327e-05
2.17017e-08
3.08315e-05
2.11678e-08
3.08307e-05
2.11001e-08
3.08303e-05
2.1383e-08
3.083e-05
2.16987e-08
3.08298e-05
2.16741e-08
3.08297e-05
2.11968e-08
3.08297e-05
2.05368e-08
3.083e-05
1.99178e-08
3.08305e-05
1.93917e-08
3.0831e-05
1.88437e-08
3.08316e-05
1.82058e-08
3.08321e-05
1.7448e-08
3.08326e-05
1.66206e-08
3.08331e-05
1.57863e-08
3.08336e-05
1.49705e-08
3.08342e-05
1.41981e-08
3.08347e-05
1.3451e-08
3.08353e-05
1.27297e-08
3.08358e-05
1.20166e-08
3.08363e-05
1.13196e-08
3.08367e-05
1.06388e-08
3.08372e-05
9.98562e-09
3.08376e-05
9.3647e-09
3.0838e-05
8.78198e-09
3.08384e-05
8.2197e-09
7.69736e-09
3.08387e-05
3.3304e-05
2.88702e-09
3.33033e-05
5.63037e-09
3.33029e-05
7.82438e-09
3.3302e-05
1.10551e-08
3.33008e-05
1.29188e-08
3.33004e-05
1.46182e-08
3.33006e-05
1.79112e-08
3.33005e-05
2.08132e-08
3.32998e-05
2.12911e-08
3.32991e-05
2.06611e-08
3.32985e-05
2.06235e-08
3.32983e-05
2.15703e-08
3.32977e-05
2.25783e-08
3.32968e-05
2.2644e-08
3.32959e-05
2.20662e-08
3.32953e-05
2.16683e-08
3.32951e-05
2.15829e-08
3.32952e-05
2.16061e-08
3.32954e-05
2.14851e-08
3.32956e-05
2.10248e-08
3.32958e-05
2.02923e-08
3.32962e-05
1.95151e-08
3.32968e-05
1.8808e-08
3.32975e-05
1.81635e-08
3.32982e-05
1.75132e-08
3.32988e-05
1.67889e-08
3.32995e-05
1.60035e-08
3.33e-05
1.51926e-08
3.33006e-05
1.43864e-08
3.33012e-05
1.3609e-08
3.33018e-05
1.28416e-08
3.33024e-05
1.21273e-08
3.3303e-05
1.14351e-08
3.33036e-05
1.07677e-08
3.33041e-05
1.01199e-08
3.33046e-05
9.49943e-09
3.3305e-05
8.90502e-09
3.33055e-05
8.34101e-09
3.33059e-05
7.8053e-09
7.29021e-09
3.33063e-05
3.59631e-05
2.87955e-09
3.59624e-05
6.41762e-09
3.5962e-05
8.18014e-09
3.59614e-05
1.16291e-08
3.59603e-05
1.3992e-08
3.59597e-05
1.52256e-08
3.59599e-05
1.77262e-08
3.59601e-05
2.06721e-08
3.59596e-05
2.17743e-08
3.59588e-05
2.14226e-08
3.59583e-05
2.11951e-08
3.59581e-05
2.1717e-08
3.59581e-05
2.25898e-08
3.59578e-05
2.29394e-08
3.59573e-05
2.2519e-08
3.59571e-05
2.19055e-08
3.59572e-05
2.14786e-08
3.59576e-05
2.12066e-08
3.59582e-05
2.09185e-08
3.59588e-05
2.04507e-08
3.59593e-05
1.97484e-08
3.59599e-05
1.89347e-08
3.59606e-05
1.81264e-08
3.59613e-05
1.73945e-08
3.59621e-05
1.67008e-08
3.59629e-05
1.59901e-08
3.59637e-05
1.52456e-08
3.59644e-05
1.44785e-08
3.59651e-05
1.37437e-08
3.59657e-05
1.30056e-08
3.59662e-05
1.22895e-08
3.59667e-05
1.16023e-08
3.59672e-05
1.09384e-08
3.59677e-05
1.03e-08
3.59681e-05
9.68279e-09
3.59685e-05
9.09168e-09
3.59689e-05
8.52459e-09
3.59693e-05
7.98541e-09
3.59696e-05
7.47183e-09
6.99326e-09
3.59699e-05
3.88348e-05
2.57922e-09
3.88335e-05
7.63914e-09
3.88338e-05
7.94589e-09
3.88328e-05
1.26145e-08
3.88326e-05
1.41762e-08
3.88314e-05
1.63806e-08
3.88318e-05
1.74179e-08
3.88318e-05
2.06021e-08
3.8832e-05
2.16082e-08
3.88312e-05
2.22123e-08
3.88308e-05
2.15493e-08
3.88305e-05
2.20681e-08