/*--------------------------------*- C++ -*----------------------------------*\
| =========                 |                                                 |
| \\      /  F ield         | OpenFOAM: The Open Source CFD Toolbox           |
|  \\    /   O peration     | Version:  2312                                  |
|   \\  /    A nd           | Website:  www.openfoam.com                      |
|    \\/     M anipulation  |                                                 |
\*---------------------------------------------------------------------------*/
FoamFile
{
    version     2.0;
    format      ascii;
    arch        "LSB;label=32;scalar=64";
    class       volVectorField;
    location    "0.2";
    object      U;
}
// * * * * * * * * * * * * * * * * * * * * * * * * * * * * * * * * * * * * * //

dimensions      [0 1 -1 0 0 0 0];

internalField   nonuniform List<vector> 
5600
(
(0.972117 -0.000954085 0)
(1.02712 0.001369 0)
(0.97436 -5.05456e-05 0)
(1.02455 -0.000421208 0)
(0.97728 -0.00263474 0)
(1.02299 -0.00109291 0)
(0.979678 0.000224896 0)
(1.02024 0.00322145 0)
(0.981141 0.00373252 0)
(1.01714 0.00384218 0)
(0.982893 0.00152577 0)
(1.01449 -0.000682333 0)
(0.984502 -0.00352519 0)
(1.01323 -0.00486667 0)
(0.986033 -0.0060383 0)
(1.01211 -0.00562659 0)
(0.987604 -0.00507863 0)
(1.01096 -0.00362025 0)
(0.989593 -0.00235281 0)
(1.00997 -0.000618443 0)
(0.990963 0.00056183 0)
(1.00887 0.00183038 0)
(0.992205 0.0026092 0)
(1.00741 0.00339183 0)
(0.992787 0.00366487 0)
(1.00601 0.00397015 0)
(0.993026 0.00377381 0)
(1.00456 0.0036846 0)
(0.993274 0.00331217 0)
(1.00331 0.00309872 0)
(0.993387 0.00266814 0)
(1.00214 0.00242296 0)
(0.993362 0.00207402 0)
(1.00089 0.00193035 0)
(0.993099 0.00170486 0)
(0.9996 0.00167613 0)
(0.992743 0.00160528 0)
(0.998415 0.00176059 0)
(0.992432 0.00197309 0)
(0.997695 0.00244428 0)
(0.98759 -0.000973554 0)
(1.01069 0.0013741 0)
(0.990324 -3.90427e-05 0)
(1.00906 -0.000453872 0)
(0.99212 -0.00266623 0)
(1.00689 -0.00111825 0)
(0.992952 0.000279971 0)
(1.00523 0.00325472 0)
(0.995151 0.00382555 0)
(1.00477 0.00383584 0)
(0.99772 0.00161462 0)
(1.00391 -0.000688533 0)
(0.99785 -0.0035361 0)
(1.00216 -0.00489203 0)
(0.996506 -0.00604551 0)
(1.00015 -0.0056873 0)
(0.995512 -0.00509105 0)
(0.999022 -0.00375058 0)
(0.99605 -0.00238522 0)
(0.998932 -0.000694023 0)
(0.996821 0.000527221 0)
(0.999307 0.0017709 0)
(0.997816 0.00268005 0)
(0.999279 0.00344696 0)
(0.998213 0.00381256 0)
(0.999184 0.00411731 0)
(0.998207 0.00391897 0)
(0.998807 0.00382775 0)
(0.998162 0.00346723 0)
(0.998492 0.00328323 0)
(0.997935 0.00291158 0)
(0.998099 0.00273033 0)
(0.997592 0.00247849 0)
(0.997529 0.00240887 0)
(0.997017 0.00229765 0)
(0.996845 0.00235718 0)
(0.99647 0.0024237 0)
(0.996389 0.00268333 0)
(0.996308 0.00303842 0)
(0.996593 0.00360913 0)
(0.99685 -0.000878217 0)
(1.0018 0.0012356 0)
(0.998426 3.0222e-05 0)
(1.0021 -0.000517271 0)
(0.998196 -0.00248502 0)
(0.9994 -0.00115718 0)
(0.996744 0.000355119 0)
(0.999135 0.00304226 0)
(0.999234 0.00376374 0)
(1.00187 0.00358174 0)
(1.00222 0.00161882 0)
(1.00303 -0.000696378 0)
(1.00168 -0.00326221 0)
(1.0006 -0.00469586 0)
(0.998569 -0.00568665 0)
(0.997257 -0.00549629 0)
(0.9957 -0.00485102 0)
(0.99524 -0.00371751 0)
(0.994766 -0.00231741 0)
(0.994929 -0.000812039 0)
(0.994989 0.000435577 0)
(0.995595 0.00159409 0)
(0.995978 0.00259004 0)
(0.996416 0.00327694 0)
(0.996817 0.0037306 0)
(0.997293 0.00398672 0)
(0.997398 0.00388668 0)
(0.997562 0.00374112 0)
(0.997636 0.00348487 0)
(0.997608 0.00328695 0)
(0.997553 0.00302583 0)
(0.997449 0.00287024 0)
(0.997278 0.00266948 0)
(0.997017 0.00254251 0)
(0.996735 0.00244993 0)
(0.996441 0.00242529 0)
(0.99621 0.00248273 0)
(0.996059 0.00258732 0)
(0.99604 0.00277492 0)
(0.99626 0.0029923 0)
(0.99931 -0.000861763 0)
(0.99973 0.00119718 0)
(1.00032 1.13433e-05 0)
(1.00084 -0.000501062 0)
(0.999326 -0.00236654 0)
(0.997788 -0.00107926 0)
(0.9969 0.000376725 0)
(0.997847 0.00292259 0)
(0.999677 0.00360814 0)
(1.00173 0.00339949 0)
(1.0031 0.00154194 0)
(1.00353 -0.000690421 0)
(1.00266 -0.00307932 0)
(1.00106 -0.00447299 0)
(0.999116 -0.0053881 0)
(0.997142 -0.00524495 0)
(0.995547 -0.00462514 0)
(0.994435 -0.00358631 0)
(0.99378 -0.00225 0)
(0.993532 -0.000830776 0)
(0.993532 0.000372052 0)
(0.993832 0.00145616 0)
(0.994317 0.00242765 0)
(0.994794 0.00310602 0)
(0.995346 0.00354343 0)
(0.996015 0.00383573 0)
(0.996301 0.00379517 0)
(0.99659 0.00369142 0)
(0.996763 0.00349275 0)
(0.996821 0.00334422 0)
(0.996849 0.00314244 0)
(0.996782 0.00303009 0)
(0.996708 0.00288842 0)
(0.996496 0.0028054 0)
(0.996331 0.0027736 0)
(0.996122 0.00279285 0)
(0.996018 0.00289984 0)
(0.995976 0.00304401 0)
(0.996094 0.00326242 0)
(0.996423 0.00350476 0)
(0.999696 -0.000782389 0)
(0.999472 0.00107974 0)
(1.00056 3.68884e-05 0)
(1.0007 -0.00051288 0)
(0.999464 -0.00213544 0)
(0.997641 -0.00102608 0)
(0.996904 0.000420462 0)
(0.997717 0.00267194 0)
(0.999682 0.00338683 0)
(1.00168 0.00308409 0)
(1.0031 0.00143674 0)
(1.00352 -0.000685734 0)
(1.00274 -0.00280158 0)
(1.00121 -0.00414333 0)
(0.999308 -0.00492662 0)
(0.99733 -0.00484457 0)
(0.995698 -0.00424823 0)
(0.994471 -0.00331309 0)
(0.993685 -0.00207175 0)
(0.993285 -0.000784616 0)
(0.993168 0.000328588 0)
(0.993341 0.00134524 0)
(0.993742 0.00224487 0)
(0.994179 0.00286971 0)
(0.994703 0.00329899 0)
(0.995354 0.00356479 0)
(0.995682 0.00359435 0)
(0.996027 0.00354243 0)
(0.996247 0.00341567 0)
(0.996345 0.00332832 0)
(0.996426 0.00318286 0)
(0.996395 0.00310663 0)
(0.996381 0.00300831 0)
(0.996213 0.00294667 0)
(0.996108 0.00292951 0)
(0.995952 0.00292954 0)
(0.9959 0.00299598 0)
(0.995894 0.00306622 0)
(0.996033 0.00318395 0)
(0.996368 0.00329405 0)
(0.99975 -0.000754731 0)
(0.999476 0.00102195 0)
(1.00053 1.89504e-05 0)
(1.00063 -0.000498334 0)
(0.999476 -0.00197372 0)
(0.997753 -0.0009378 0)
(0.997068 0.000458655 0)
(0.997839 0.00250472 0)
(0.999686 0.00320071 0)
(1.00155 0.00284867 0)
(1.00285 0.0013427 0)
(1.00322 -0.0006882 0)
(1.00251 -0.00261591 0)
(1.00109 -0.00388217 0)
(0.999309 -0.00458266 0)
(0.997465 -0.00452232 0)
(0.995921 -0.00394483 0)
(0.994733 -0.00307827 0)
(0.993952 -0.00191443 0)
(0.993528 -0.00072422 0)
(0.993357 0.000335228 0)
(0.993455 0.00127495 0)
(0.993798 0.00209811 0)
(0.994168 0.00269825 0)
(0.994621 0.00310925 0)
(0.995211 0.00337039 0)
(0.995499 0.00346338 0)
(0.995812 0.00345635 0)
(0.996028 0.00338482 0)
(0.996136 0.00333403 0)
(0.996232 0.00323688 0)
(0.996211 0.00317518 0)
(0.996236 0.00310897 0)
(0.996104 0.00307037 0)
(0.996048 0.00307523 0)
(0.995943 0.00309173 0)
(0.995942 0.00315688 0)
(0.99599 0.00322017 0)
(0.996179 0.00332168 0)
(0.996572 0.00341593 0)
(0.99977 -0.000680945 0)
(0.999503 0.000911364 0)
(1.00047 4.20513e-05 0)
(1.00055 -0.000499613 0)
(0.999471 -0.00175023 0)
(0.997885 -0.000869085 0)
(0.99726 0.000489148 0)
(0.997994 0.00226606 0)
(0.999699 0.00296118 0)
(1.00141 0.00255267 0)
(1.00258 0.00121923 0)
(1.00291 -0.000649793 0)
(1.00224 -0.00236809 0)
(1.00092 -0.00352892 0)
(0.999266 -0.00414082 0)
(0.997561 -0.004093 0)
(0.996113 -0.00355891 0)
(0.995003 -0.00276813 0)
(0.994279 -0.0017134 0)
(0.993854 -0.000635833 0)
(0.993664 0.000325075 0)
(0.993746 0.00119459 0)
(0.994039 0.00194285 0)
(0.994349 0.00249242 0)
(0.994741 0.00290009 0)
(0.995261 0.00314382 0)
(0.995499 0.00327381 0)
(0.99578 0.00331172 0)
(0.995993 0.00328895 0)
(0.996091 0.00327621 0)
(0.996189 0.00322418 0)
(0.996182 0.00320376 0)
(0.996223 0.00317497 0)
(0.996125 0.00317147 0)
(0.996093 0.00319193 0)
(0.996015 0.00321135 0)
(0.996027 0.003263 0)
(0.996087 0.00330005 0)
(0.996277 0.003361 0)
(0.996673 0.00339699 0)
(0.999788 -0.000641038 0)
(0.999536 0.000837928 0)
(1.00041 3.88851e-05 0)
(1.00046 -0.000494162 0)
(0.999467 -0.00157645 0)
(0.998035 -0.000793609 0)
(0.997473 0.000526134 0)
(0.998168 0.00209384 0)
(0.999717 0.00277259 0)
(1.00126 0.00233069 0)
(1.00229 0.00112078 0)
(1.00256 -0.000629061 0)
(1.00194 -0.00218753 0)
(1.00073 -0.00326181 0)
(0.999209 -0.00379659 0)
(0.99765 -0.00376673 0)
(0.996324 -0.00325248 0)
(0.995311 -0.00252224 0)
(0.994646 -0.00154364 0)
(0.99424 -0.000557385 0)
(0.994041 0.000349909 0)
(0.994092 0.00114575 0)
(0.994342 0.00183383 0)
(0.994603 0.00234864 0)
(0.99493 0.00275654 0)
(0.995395 0.00298948 0)
(0.995588 0.00316285 0)
(0.995815 0.00323108 0)
(0.996001 0.00324741 0)
(0.996089 0.00325973 0)
(0.996185 0.00325589 0)
(0.996178 0.0032633 0)
(0.996229 0.00326644 0)
(0.996145 0.00327731 0)
(0.99612 0.00329912 0)
(0.996058 0.00330385 0)
(0.996084 0.00332362 0)
(0.996159 0.00331648 0)
(0.996352 0.00332566 0)
(0.996743 0.00331383 0)
(0.999805 -0.000571714 0)
(0.999567 0.000733623 0)
(1.00035 6.09604e-05 0)
(1.00039 -0.000486506 0)
(0.999465 -0.00136812 0)
(0.998173 -0.000719445 0)
(0.997667 0.00054242 0)
(0.998325 0.00187853 0)
(0.99973 0.00252267 0)
(1.00112 0.0020676 0)
(1.00203 0.00100266 0)
(1.00225 -0.000590119 0)
(1.00168 -0.00192835 0)
(1.00056 -0.00293006 0)
(0.999163 -0.00335101 0)
(0.997739 -0.00336069 0)
(0.996509 -0.00285663 0)
(0.995577 -0.00223083 0)
(0.994983 -0.00133056 0)
(0.994589 -0.00046744 0)
(0.994379 0.000370283 0)
(0.994423 0.00106808 0)
(0.994635 0.00172561 0)
(0.994853 0.00217142 0)
(0.995128 0.00259635 0)
(0.995542 0.00279713 0)
(0.995696 0.00300262 0)
(0.995884 0.00308557 0)
(0.996064 0.00314696 0)
(0.996149 0.00318518 0)
(0.996246 0.00323021 0)
(0.996246 0.00327268 0)
(0.996294 0.00333285 0)
(0.996218 0.00338799 0)
(0.996181 0.00347753 0)
(0.996103 0.00352366 0)
(0.996097 0.00359194 0)
(0.996144 0.00359024 0)
(0.996323 0.00356827 0)
(0.996758 0.00337491 0)
(0.99983 -0.000522302 0)
(0.999597 0.000650023 0)
(1.00029 7.27418e-05 0)
(1.0003 -0.000482743 0)
(0.99947 -0.00119623 0)
(0.998315 -0.000649448 0)
(0.997879 0.000561993 0)
(0.998486 0.001729 0)
(0.99975 0.00231669 0)
(1.00097 0.00188003 0)
(1.00175 0.000905545 0)
(1.00192 -0.000547332 0)
(1.0014 -0.0017525 0)
(1.00039 -0.00265862 0)
(0.999116 -0.00301796 0)
(0.997822 -0.00303292 0)
(0.996719 -0.00256357 0)
(0.995876 -0.00198052 0)
(0.995345 -0.00116009 0)
(0.994966 -0.000375312 0)
(0.994756 0.000410816 0)
(0.994776 0.00104259 0)
(0.99495 0.00165213 0)
(0.995131 0.00206862 0)
(0.995351 0.00248719 0)
(0.99571 0.00267884 0)
(0.995844 0.00289763 0)
(0.995981 0.00301032 0)
(0.996141 0.00308825 0)
(0.99622 0.00314661 0)
(0.996327 0.00320725 0)
(0.99634 0.00326223 0)
(0.996415 0.00332436 0)
(0.996376 0.00337626 0)
(0.996351 0.00345177 0)
(0.996276 0.00349328 0)
(0.99624 0.00355821 0)
(0.996178 0.00356087 0)
(0.996018 0.00354164 0)
(0.99562 0.00335246 0)
(0.999848 -0.0004573 0)
(0.99963 0.000552626 0)
(1.00024 9.22815e-05 0)
(1.00024 -0.000465464 0)
(0.999478 -0.00101193 0)
(0.998451 -0.000563967 0)
(0.998067 0.000548788 0)
(0.998627 0.00156063 0)
(0.99976 0.00205172 0)
(1.00084 0.00167193 0)
(1.00151 0.000777678 0)
(1.00164 -0.000464219 0)
(1.00117 -0.00154832 0)
(1.00024 -0.00230027 0)
(0.999082 -0.00263653 0)
(0.997913 -0.00260988 0)
(0.996905 -0.00221907 0)
(0.996132 -0.00166799 0)
(0.995665 -0.000973716 0)
(0.995309 -0.00025403 0)
(0.995088 0.000435216 0)
(0.995099 0.00101354 0)
(0.995247 0.00155703 0)
(0.995399 0.00195611 0)
(0.995572 0.00233694 0)
(0.995885 0.00254724 0)
(0.996005 0.00274179 0)
(0.996101 0.00289627 0)
(0.99625 0.00297154 0)
(0.996327 0.00305759 0)
(0.996432 0.0031042 0)
(0.99644 0.00315824 0)
(0.996494 0.00318111 0)
(0.996444 0.00319737 0)
(0.996402 0.00322079 0)
(0.996322 0.00323349 0)
(0.996264 0.00326314 0)
(0.996178 0.00325979 0)
(0.996003 0.00326865 0)
(0.995648 0.00324568 0)
(0.999864 -0.000402392 0)
(0.99967 0.000466293 0)
(1.00018 0.00011234 0)
(1.00017 -0.000451762 0)
(0.999487 -0.000862361 0)
(0.998592 -0.0004821 0)
(0.998265 0.000535861 0)
(0.998776 0.00143333 0)
(0.999775 0.00185107 0)
(1.0007 0.00151026 0)
(1.00126 0.000692882 0)
(1.00134 -0.000403422 0)
(1.00092 -0.00137997 0)
(1.00008 -0.00202878 0)
(0.999043 -0.00232319 0)
(0.997997 -0.00228384 0)
(0.997105 -0.00194222 0)
(0.996419 -0.0014214 0)
(0.996005 -0.000798336 0)
(0.995676 -0.000150988 0)
(0.995451 0.000485969 0)
(0.995446 0.00102119 0)
(0.995564 0.00150648 0)
(0.995691 0.00188576 0)
(0.99582 0.00224202 0)
(0.996079 0.00246128 0)
(0.996192 0.00263817 0)
(0.996249 0.00281381 0)
(0.996363 0.00288541 0)
(0.996423 0.00296651 0)
(0.996506 0.00299855 0)
(0.996498 0.0030453 0)
(0.996532 0.0030659 0)
(0.9965 0.00309057 0)
(0.996473 0.0031308 0)
(0.996415 0.00316406 0)
(0.996354 0.00321486 0)
(0.996259 0.00323629 0)
(0.996057 0.00326938 0)
(0.995669 0.00326902 0)
(0.99988 -0.000342084 0)
(0.999707 0.000377496 0)
(1.00013 0.000126109 0)
(1.00012 -0.000418344 0)
(0.999506 -0.000716386 0)
(0.998721 -0.000377005 0)
(0.998442 0.00050132 0)
(0.998902 0.00128688 0)
(0.999781 0.00161831 0)
(1.00057 0.00132385 0)
(1.00103 0.00060095 0)
(1.00109 -0.000334268 0)
(1.00071 -0.00116872 0)
(0.999962 -0.00171685 0)
(0.999023 -0.00195691 0)
(0.998089 -0.00190948 0)
(0.997289 -0.00160377 0)
(0.996668 -0.0011461 0)
(0.996304 -0.000597439 0)
(0.996008 -3.34871e-05 0)
(0.995781 0.000534211 0)
(0.995759 0.0010191 0)
(0.995857 0.0014434 0)
(0.99597 0.0017929 0)
(0.996064 0.00211681 0)
(0.996273 0.0023383 0)
(0.996383 0.00249712 0)
(0.996404 0.00266377 0)
(0.996481 0.00274175 0)
(0.996526 0.00282015 0)
(0.996603 0.00286335 0)
(0.996604 0.0029202 0)
(0.996637 0.00296976 0)
(0.99662 0.00301073 0)
(0.996598 0.00306625 0)
(0.996546 0.00310292 0)
(0.996473 0.00315594 0)
(0.996364 0.00317853 0)
(0.996148 0.00321632 0)
(0.995757 0.00322988 0)
(0.999895 -0.000287182 0)
(0.999749 0.000298953 0)
(1.00008 0.000135166 0)
(1.00007 -0.000376813 0)
(0.999526 -0.000601293 0)
(0.998849 -0.00028521 0)
(0.998622 0.000473306 0)
(0.999034 0.00116944 0)
(0.999794 0.00144082 0)
(1.00045 0.00118448 0)
(1.00081 0.00054132 0)
(1.00083 -0.000267718 0)
(1.00049 -0.000995666 0)
(0.999838 -0.00146328 0)
(0.999002 -0.00165954 0)
(0.998173 -0.00160506 0)
(0.997476 -0.00133353 0)
(0.996938 -0.000916376 0)
(0.99662 -0.000423574 0)
(0.996351 8.32524e-05 0)
(0.996133 0.000585205 0)
(0.996091 0.00103871 0)
(0.996164 0.0014188 0)
(0.996263 0.00173347 0)
(0.996329 0.00202764 0)
(0.996485 0.00224886 0)
(0.996576 0.00239352 0)
(0.996574 0.00254819 0)
(0.996616 0.00263849 0)
(0.996647 0.0027214 0)
(0.996717 0.00278252 0)
(0.996726 0.00284611 0)
(0.996748 0.00291005 0)
(0.996736 0.00295383 0)
(0.996712 0.00301122 0)
(0.996663 0.00304698 0)
(0.996583 0.00309956 0)
(0.996471 0.00312807 0)
(0.996255 0.00317139 0)
(0.99587 0.00319739 0)
(0.99991 -0.000233394 0)
(0.999788 0.000224726 0)
(1.00004 0.000126215 0)
(1.00002 -0.000315638 0)
(0.999556 -0.000485496 0)
(0.998969 -0.000188657 0)
(0.998781 0.000448509 0)
(0.999145 0.00103509 0)
(0.999797 0.00125363 0)
(1.00034 0.00102848 0)
(1.00062 0.000481108 0)
(1.00061 -0.000198653 0)
(1.00032 -0.000802447 0)
(0.999744 -0.00118613 0)
(0.999 -0.00133242 0)
(0.998269 -0.00127239 0)
(0.997655 -0.00102753 0)
(0.997177 -0.000660845 0)
(0.996903 -0.000240435 0)
(0.996661 0.000212886 0)
(0.996452 0.000642787 0)
(0.9964 0.00104218 0)
(0.996445 0.00138874 0)
(0.996535 0.0016603 0)
(0.996588 0.00192699 0)
(0.996695 0.00213349 0)
(0.996771 0.00227887 0)
(0.996755 0.00242234 0)
(0.996774 0.00252532 0)
(0.996798 0.00261253 0)
(0.996865 0.00268694 0)
(0.996884 0.0027541 0)
(0.996899 0.00282669 0)
(0.996886 0.00287711 0)
(0.996861 0.00293718 0)
(0.996815 0.0029788 0)
(0.996737 0.0030329 0)
(0.996624 0.00307112 0)
(0.996411 0.00311687 0)
(0.996026 0.00315114 0)
(0.999923 -0.000184736 0)
(0.999828 0.000161978 0)
(1.00001 0.000118598 0)
(0.999981 -0.000251366 0)
(0.999584 -0.000391655 0)
(0.999084 -0.000112612 0)
(0.998936 0.000428002 0)
(0.999259 0.000923425 0)
(0.999808 0.00110701 0)
(1.00024 0.000914 0)
(1.00044 0.000448766 0)
(1.00041 -0.000126483 0)
(1.00015 -0.000634568 0)
(0.999654 -0.000952293 0)
(0.998999 -0.00105818 0)
(0.998356 -0.000995027 0)
(0.997832 -0.000778051 0)
(0.997421 -0.000445278 0)
(0.997196 -7.90195e-05 0)
(0.996979 0.000324408 0)
(0.996774 0.000712078 0)
(0.99672 0.00105648 0)
(0.996739 0.00137783 0)
(0.996814 0.00162389 0)
(0.996857 0.00186068 0)
(0.996928 0.00205571 0)
(0.996983 0.00220043 0)
(0.996956 0.00233558 0)
(0.996952 0.00244503 0)
(0.996964 0.00253554 0)
(0.997022 0.00261334 0)
(0.997045 0.00268076 0)
(0.997054 0.00275287 0)
(0.997038 0.00280914 0)
(0.99701 0.00286845 0)
(0.996966 0.00291511 0)
(0.996892 0.00296614 0)
(0.996777 0.00300885 0)
(0.996566 0.00305158 0)
(0.996177 0.00308882 0)
(0.999935 -0.000139982 0)
(0.999864 0.000107644 0)
(0.999992 0.000103556 0)
(0.99995 -0.000187693 0)
(0.99962 -0.000295191 0)
(0.999193 -3.91098e-05 0)
(0.999071 0.000414183 0)
(0.999352 0.000813915 0)
(0.999812 0.000958024 0)
(1.00014 0.000798332 0)
(1.00028 0.000415011 0)
(1.00024 -5.45201e-05 0)
(1.00002 -0.000462145 0)
(0.999593 -0.00071227 0)
(0.999019 -0.00077956 0)
(0.998456 -0.000703273 0)
(0.998007 -0.000517522 0)
(0.997646 -0.000218234 0)
(0.997457 9.29895e-05 0)
(0.997274 0.00043214 0)
(0.99707 0.000790325 0)
(0.997014 0.001075 0)
(0.997019 0.00136056 0)
(0.997076 0.00158371 0)
(0.997115 0.00179263 0)
(0.99716 0.00197494 0)
(0.997199 0.00211141 0)
(0.997165 0.00224213 0)
(0.997149 0.00235026 0)
(0.99715 0.00244717 0)
(0.9972 0.00252381 0)
(0.997229 0.00259657 0)
(0.997241 0.00266469 0)
(0.997223 0.00273 0)
(0.997193 0.00278788 0)
(0.997148 0.00284245 0)
(0.997076 0.00289015 0)
(0.996959 0.00293779 0)
(0.996748 0.0029778 0)
(0.996356 0.00301908 0)
(0.999947 -0.000101684 0)
(0.999899 6.78373e-05 0)
(0.999979 8.92329e-05 0)
(0.999923 -0.000128275 0)
(0.999652 -0.000210269 0)
(0.999295 1.59077e-05 0)
(0.999198 0.000399409 0)
(0.999444 0.000723794 0)
(0.999824 0.000840348 0)
(1.00007 0.000714602 0)
(1.00014 0.000405283 0)
(1.00008 2.44871e-05 0)
(0.999894 -0.000305881 0)
(0.99954 -0.000503239 0)
(0.999045 -0.000540432 0)
(0.998547 -0.000456058 0)
(0.998174 -0.000296221 0)
(0.997872 -3.05821e-05 0)
(0.997713 0.000247875 0)
(0.997574 0.000529222 0)
(0.997371 0.000858286 0)
(0.997302 0.00111127 0)
(0.997306 0.00135594 0)
(0.997347 0.00156428 0)
(0.997383 0.00175049 0)
(0.997405 0.00192145 0)
(0.997428 0.00204903 0)
(0.997389 0.0021753 0)
(0.997364 0.00227814 0)
(0.99735 0.00237762 0)
(0.997389 0.00245267 0)
(0.997417 0.00252671 0)
(0.997432 0.00259064 0)
(0.997414 0.00265704 0)
(0.997382 0.00271312 0)
(0.997332 0.00276883 0)
(0.99726 0.00281466 0)
(0.997142 0.00286164 0)
(0.996931 0.00290037 0)
(0.996538 0.0029408 0)
(0.999957 -6.94481e-05 0)
(0.999928 4.56503e-05 0)
(0.999974 6.71249e-05 0)
(0.999908 -7.90821e-05 0)
(0.999687 -0.000127535 0)
(0.99939 7.07519e-05 0)
(0.999308 0.000389812 0)
(0.999517 0.000645202 0)
(0.99983 0.000731597 0)
(1 0.0006349 0)
(1.00002 0.000396465 0)
(0.999953 9.87851e-05 0)
(0.999803 -0.000155205 0)
(0.999513 -0.000299072 0)
(0.999089 -0.00031319 0)
(0.998651 -0.000215397 0)
(0.998338 -7.06707e-05 0)
(0.998086 0.000150387 0)
(0.997946 0.000407174 0)
(0.997846 0.000632617 0)
(0.99766 0.000917847 0)
(0.997573 0.00115525 0)
(0.997574 0.00135618 0)
(0.997609 0.00154554 0)
(0.997642 0.00170653 0)
(0.997647 0.00186697 0)
(0.997659 0.00198512 0)
(0.997617 0.00210538 0)
(0.997588 0.00220097 0)
(0.997565 0.00229922 0)
(0.997595 0.00237383 0)
(0.997622 0.00244755 0)
(0.99764 0.00250981 0)
(0.997625 0.00257406 0)
(0.997592 0.00263044 0)
(0.997539 0.002685 0)
(0.997465 0.00273243 0)
(0.997345 0.00277722 0)
(0.997133 0.00281728 0)
(0.99674 0.00285481 0)
(0.999966 -4.44882e-05 0)
(0.999952 3.82247e-05 0)
(0.999971 4.77839e-05 0)
(0.999897 -3.82349e-05 0)
(0.999719 -5.62324e-05 0)
(0.999475 0.000113634 0)
(0.999406 0.00037735 0)
(0.999585 0.000580805 0)
(0.999842 0.000648492 0)
(0.999955 0.000580096 0)
(0.999931 0.000404841 0)
(0.999848 0.000179587 0)
(0.999725 -1.4644e-05 0)
(0.999493 -0.000119151 0)
(0.999141 -0.000113434 0)
(0.998755 -1.05531e-05 0)
(0.998489 0.000122157 0)
(0.998299 0.000306477 0)
(0.998179 0.000540304 0)
(0.998106 0.000732654 0)
(0.997953 0.000970994 0)
(0.997845 0.00119544 0)
(0.997838 0.00136983 0)
(0.997869 0.00153788 0)
(0.997905 0.00167831 0)
(0.997902 0.00182696 0)
(0.9979 0.00193821 0)
(0.997853 0.0020506 0)
(0.997819 0.00214119 0)
(0.997791 0.0022328 0)
(0.997809 0.00230716 0)
(0.997832 0.00237632 0)
(0.997849 0.00243761 0)
(0.997838 0.00249617 0)
(0.997804 0.00255212 0)
(0.997751 0.00260262 0)
(0.997672 0.00265067 0)
(0.997551 0.00269181 0)
(0.997336 0.00273212 0)
(0.996942 0.00276607 0)
(0.999974 -2.40542e-05 0)
(0.999967 3.60064e-05 0)
(0.99997 3.65039e-05 0)
(0.999897 -7.23426e-06 0)
(0.999753 6.19627e-06 0)
(0.999551 0.000156129 0)
(0.99949 0.000372119 0)
(0.999638 0.000529811 0)
(0.999849 0.000579314 0)
(0.999917 0.00053348 0)
(0.999859 0.00041378 0)
(0.999769 0.000253822 0)
(0.999675 0.000113984 0)
(0.999497 4.88113e-05 0)
(0.999208 7.01347e-05 0)
(0.998872 0.000174441 0)
(0.998642 0.000309078 0)
(0.998499 0.000458338 0)
(0.998399 0.000658873 0)
(0.998343 0.0008357 0)
(0.998226 0.00102482 0)
(0.998112 0.00122992 0)
(0.998088 0.00138583 0)
(0.998114 0.00153261 0)
(0.998157 0.00165373 0)
(0.998151 0.00178347 0)
(0.99814 0.00188988 0)
(0.99809 0.00199181 0)
(0.998052 0.00207986 0)
(0.998023 0.00216177 0)
(0.998031 0.00223598 0)
(0.998052 0.0022993 0)
(0.998068 0.00236093 0)
(0.998062 0.00241404 0)
(0.998028 0.00246966 0)
(0.997975 0.00251611 0)
(0.997892 0.00256431 0)
(0.997768 0.00260261 0)
(0.99755 0.00264276 0)
(0.997156 0.00267429 0)
(0.99998 -9.32909e-06 0)
(0.999979 3.88359e-05 0)
(0.99997 3.74978e-05 0)
(0.9999 1.71039e-05 0)
(0.999785 5.37632e-05 0)
(0.999617 0.000189078 0)
(0.999561 0.00036646 0)
(0.999684 0.000489357 0)
(0.99986 0.000529102 0)
(0.999894 0.000505794 0)
(0.99981 0.000434298 0)
(0.99971 0.000329661 0)
(0.999639 0.000234317 0)
(0.999508 0.00019594 0)
(0.99928 0.000228952 0)
(0.998994 0.000332475 0)
(0.998788 0.00046246 0)
(0.998684 0.000589452 0)
(0.998621 0.000759127 0)
(0.998573 0.000921991 0)
(0.998487 0.00107869 0)
(0.998378 0.00125817 0)
(0.998337 0.00140133 0)
(0.998354 0.0015328 0)
(0.998399 0.0016375 0)
(0.998402 0.00174832 0)
(0.998384 0.0018486 0)
(0.998332 0.00194149 0)
(0.998287 0.00202721 0)
(0.998256 0.00210063 0)
(0.998256 0.00217226 0)
(0.998274 0.00222975 0)
(0.998287 0.00228913 0)
(0.998283 0.00233733 0)
(0.998251 0.00239008 0)
(0.998199 0.00243289 0)
(0.998113 0.00247876 0)
(0.997986 0.00251475 0)
(0.997764 0.00255273 0)
(0.997367 0.00258251 0)
(0.999985 2.37259e-06 0)
(0.999986 4.24807e-05 0)
(0.999969 4.44399e-05 0)
(0.999907 3.87635e-05 0)
(0.99982 9.07916e-05 0)
(0.999676 0.000218324 0)
(0.99962 0.000367812 0)
(0.999718 0.000462256 0)
(0.999868 0.000492412 0)
(0.999881 0.000485975 0)
(0.99978 0.000455198 0)
(0.999675 0.000398058 0)
(0.999623 0.000340319 0)
(0.999537 0.000326176 0)
(0.999364 0.000371007 0)
(0.999122 0.00047049 0)
(0.998938 0.000597623 0)
(0.998861 0.000714758 0)
(0.998826 0.000849287 0)
(0.99879 0.000995282 0)
(0.998728 0.00113162 0)
(0.998631 0.00128305 0)
(0.99858 0.00141438 0)
(0.998581 0.00153034 0)
(0.998623 0.00162385 0)
(0.998637 0.00171462 0)
(0.998623 0.00180516 0)
(0.998573 0.00188866 0)
(0.998521 0.00197097 0)
(0.998487 0.00203894 0)
(0.99848 0.00210605 0)
(0.998494 0.00215939 0)
(0.998506 0.00221422 0)
(0.998505 0.00225947 0)
(0.998476 0.00230769 0)
(0.998424 0.0023485 0)
(0.998337 0.00239049 0)
(0.998205 0.0024255 0)
(0.997981 0.00246021 0)
(0.997581 0.00248943 0)
(0.999989 1.09955e-05 0)
(0.999991 4.66e-05 0)
(0.999967 5.77281e-05 0)
(0.999913 6.20588e-05 0)
(0.999852 0.000116947 0)
(0.999729 0.000237822 0)
(0.999668 0.000369483 0)
(0.999745 0.000445283 0)
(0.999876 0.000469594 0)
(0.999881 0.000477713 0)
(0.99977 0.000481366 0)
(0.999658 0.000464628 0)
(0.99962 0.00043722 0)
(0.999572 0.000438892 0)
(0.999449 0.000489219 0)
(0.999254 0.000585854 0)
(0.999089 0.000708244 0)
(0.999021 0.000816938 0)
(0.999017 0.000925883 0)
(0.999003 0.00105246 0)
(0.998956 0.00117391 0)
(0.998873 0.00130421 0)
(0.998814 0.00142242 0)
(0.998802 0.00152599 0)
(0.998834 0.00161113 0)
(0.998857 0.00168656 0)
(0.998852 0.00176541 0)
(0.998811 0.00183888 0)
(0.998756 0.0019159 0)
(0.998715 0.00198037 0)
(0.998701 0.00204326 0)
(0.998709 0.00209342 0)
(0.998719 0.00214304 0)
(0.998718 0.0021851 0)
(0.998693 0.00222811 0)
(0.998642 0.0022664 0)
(0.998555 0.0023041 0)
(0.99842 0.00233755 0)
(0.998193 0.00236884 0)
(0.997789 0.00239692 0)
(0.999992 1.86671e-05 0)
(0.999993 5.02454e-05 0)
(0.999965 7.18684e-05 0)
(0.999919 8.60244e-05 0)
(0.999882 0.000137657 0)
(0.999779 0.000251974 0)
(0.999709 0.000374129 0)
(0.999762 0.000439674 0)
(0.999881 0.000458327 0)
(0.999888 0.000474405 0)
(0.999778 0.000504143 0)
(0.99966 0.000522155 0)
(0.99963 0.000521545 0)
(0.999616 0.000534721 0)
(0.99954 0.000588145 0)
(0.999386 0.000681394 0)
(0.999239 0.000797368 0)
(0.999175 0.000903931 0)
(0.999188 0.000996113 0)
(0.999196 0.00109769 0)
(0.999169 0.00120475 0)
(0.999099 0.00131766 0)
(0.999037 0.00142501 0)
(0.999011 0.0015181 0)
(0.999028 0.00159531 0)
(0.999055 0.00166039 0)
(0.99906 0.00172613 0)
(0.999033 0.00178982 0)
(0.998985 0.00185786 0)
(0.998941 0.00191935 0)
(0.998918 0.0019778 0)
(0.998916 0.00202643 0)
(0.998923 0.00207139 0)
(0.998922 0.00211077 0)
(0.998901 0.00214886 0)
(0.998852 0.00218437 0)
(0.998766 0.00221814 0)
(0.998629 0.00224952 0)
(0.9984 0.00227799 0)
(0.997992 0.00230445 0)
(0.999993 2.50224e-05 0)
(0.999996 5.33203e-05 0)
(0.999966 8.68175e-05 0)
(0.999923 0.000111241 0)
(0.999908 0.000155274 0)
(0.999824 0.000259252 0)
(0.999747 0.000376703 0)
(0.999775 0.000441295 0)
(0.999885 0.000458351 0)
(0.999902 0.000477648 0)
(0.999801 0.000525043 0)
(0.999678 0.000572294 0)
(0.999648 0.000595327 0)
(0.999659 0.000616453 0)
(0.999625 0.000667707 0)
(0.999514 0.000753605 0)
(0.999389 0.000863741 0)
(0.99932 0.000969438 0)
(0.999336 0.00105193 0)
(0.999367 0.00113352 0)
(0.999365 0.00122364 0)
(0.999311 0.00132047 0)
(0.999248 0.00141822 0)
(0.999209 0.00150288 0)
(0.999211 0.00157408 0)
(0.999233 0.00163225 0)
(0.999248 0.00168783 0)
(0.999236 0.00174224 0)
(0.999201 0.00180024 0)
(0.999159 0.0018567 0)
(0.999131 0.00191024 0)
(0.999119 0.00195713 0)
(0.999119 0.00199842 0)
(0.999115 0.0020352 0)
(0.999096 0.00206889 0)
(0.999049 0.00210102 0)
(0.998966 0.00213086 0)
(0.998827 0.00215945 0)
(0.998596 0.00218511 0)
(0.998185 0.00220939 0)
(0.999994 3.09613e-05 0)
(0.999997 5.78767e-05 0)
(0.999968 9.89741e-05 0)
(0.999926 0.000135192 0)
(0.999928 0.00017365 0)
(0.999867 0.00026349 0)
(0.999784 0.000377087 0)
(0.999786 0.000448289 0)
(0.999883 0.000468068 0)
(0.999917 0.000486395 0)
(0.999837 0.000539416 0)
(0.999713 0.000609416 0)
(0.999675 0.000656316 0)
(0.999701 0.000684411 0)
(0.999705 0.000731762 0)
(0.999635 0.000808691 0)
(0.999535 0.000908911 0)
(0.999463 0.00101256 0)
(0.999469 0.00109466 0)
(0.999511 0.00116286 0)
(0.999533 0.00123528 0)
(0.999502 0.00131629 0)
(0.999446 0.00140326 0)
(0.999396 0.00148214 0)
(0.999381 0.00154909 0)
(0.999394 0.00160395 0)
(0.999411 0.00165278 0)
(0.999413 0.00170013 0)
(0.999394 0.00174915 0)
(0.999362 0.00179918 0)
(0.999333 0.0018475 0)
(0.999313 0.00189177 0)
(0.999304 0.00193075 0)
(0.999294 0.0019654 0)
(0.999275 0.00199645 0)
(0.999229 0.00202552 0)
(0.999149 0.00205259 0)
(0.99901 0.00207839 0)
(0.998779 0.00210209 0)
(0.998366 0.00212426 0)
(0.999995 3.47493e-05 0)
(0.999999 6.31842e-05 0)
(0.999973 0.000109251 0)
(0.999929 0.000157086 0)
(0.999942 0.000194012 0)
(0.999904 0.000266601 0)
(0.999824 0.00037359 0)
(0.999801 0.000454911 0)
(0.999881 0.000484026 0)
(0.99993 0.000502558 0)
(0.999879 0.000551723 0)
(0.999764 0.000632901 0)
(0.999712 0.000702196 0)
(0.999739 0.000740926 0)
(0.999772 0.000781957 0)
(0.999741 0.000847603 0)
(0.999672 0.000934466 0)
(0.999605 0.00102946 0)
(0.999595 0.00111137 0)
(0.999633 0.00117298 0)
(0.999674 0.00122991 0)
(0.999671 0.00129325 0)
(0.99963 0.00136539 0)
(0.999576 0.00143602 0)
(0.999547 0.00149914 0)
(0.999547 0.00155149 0)
(0.999562 0.0015958 0)
(0.999572 0.00163755 0)
(0.999567 0.00167842 0)
(0.999548 0.00172093 0)
(0.999524 0.00176229 0)
(0.999501 0.00180218 0)
(0.999486 0.00183792 0)
(0.999469 0.00187031 0)
(0.999446 0.00189898 0)
(0.999401 0.00192546 0)
(0.999322 0.00194993 0)
(0.999185 0.00197306 0)
(0.998955 0.0019947 0)
(0.998541 0.00201485 0)
(0.999996 3.8599e-05 0)
(1 7.20649e-05 0)
(0.999982 0.000114874 0)
(0.999934 0.000174198 0)
(0.999952 0.000216411 0)
(0.999936 0.000271661 0)
(0.999865 0.000368452 0)
(0.999823 0.000459531 0)
(0.999881 0.000501308 0)
(0.999938 0.000522925 0)
(0.99992 0.000565268 0)
(0.999828 0.000643914 0)
(0.999765 0.000728101 0)
(0.999777 0.000783477 0)
(0.999827 0.000823819 0)
(0.99983 0.000880034 0)
(0.999792 0.000955534 0)
(0.999737 0.00104118 0)
(0.999715 0.00112323 0)
(0.999736 0.00118848 0)
(0.999781 0.00124079 0)
(0.9998 0.00129291 0)
(0.999783 0.00135159 0)
(0.999738 0.00141388 0)
(0.999703 0.00147436 0)
(0.999689 0.0015265 0)
(0.999696 0.00157084 0)
(0.999707 0.0016104 0)
(0.999712 0.00164732 0)
(0.999703 0.00168429 0)
(0.999688 0.00172009 0)
(0.999669 0.00175514 0)
(0.999651 0.00178705 0)
(0.999631 0.00181633 0)
(0.999603 0.00184202 0)
(0.999556 0.0018654 0)
(0.999478 0.00188642 0)
(0.999344 0.00190597 0)
(0.999114 0.00192397 0)
(0.998701 0.00194068 0)
(0.999998 3.53281e-05 0)
(1 8.57623e-05 0)
(0.99999 0.000120395 0)
(0.999944 0.000185151 0)
(0.999958 0.000238627 0)
(0.999958 0.000281982 0)
(0.999909 0.000362304 0)
(0.999854 0.000458657 0)
(0.999888 0.000515967 0)
(0.999944 0.000543756 0)
(0.999954 0.000581332 0)
(0.999894 0.000648765 0)
(0.999834 0.000732252 0)
(0.999827 0.000798974 0)
(0.999877 0.000841188 0)
(0.999909 0.000883549 0)
(0.999903 0.000939401 0)
(0.999869 0.00100573 0)
(0.999849 0.00107394 0)
(0.999856 0.00113379 0)
(0.999891 0.00118062 0)
(0.99992 0.00122213 0)
(0.999923 0.00126536 0)
(0.999897 0.00131454 0)
(0.999866 0.00136638 0)
(0.999844 0.00141488 0)
(0.999843 0.00145795 0)
(0.999848 0.00149588 0)
(0.999855 0.00153077 0)
(0.999852 0.00156484 0)
(0.999843 0.00159837 0)
(0.999826 0.00163199 0)
(0.999806 0.00166412 0)
(0.99978 0.00169507 0)
(0.999746 0.00172359 0)
(0.999693 0.0017506 0)
(0.99961 0.00177547 0)
(0.999473 0.00179908 0)
(0.999242 0.00182093 0)
(0.998826 0.00184149 0)
(0.999999 3.95531e-05 0)