/*--------------------------------*- C++ -*----------------------------------*\
| =========                 |                                                 |
| \\      /  F ield         | OpenFOAM: The Open Source CFD Toolbox           |
|  \\    /   O peration     | Version:  2312                                  |
|   \\  /    A nd           | Website:  www.openfoam.com                      |
|    \\/     M anipulation  |                                                 |
\*---------------------------------------------------------------------------*/
FoamFile
{
    version     2.0;
    format      ascii;
    arch        "LSB;label=32;scalar=64";
    class       volScalarField;
    location    "0.15";
    object      p;
}
// * * * * * * * * * * * * * * * * * * * * * * * * * * * * * * * * * * * * * //

dimensions      [0 2 -2 0 0 0 0];

internalField   nonuniform List<scalar> 
5600
(
1.46371e-10
0.000395109
0.000341886
0.000403714
0.000152072
0.000361632
0.000429975
0.000577913
0.000557091
0.000589336
0.000665979
0.000778989
0.000766482
0.000820518
0.000915405
0.00104533
0.00110924
0.00113237
0.00120507
0.00132264
0.00147644
0.00156549
0.00163026
0.00173366
0.0018353
0.00198907
0.00214414
0.00229567
0.00240166
0.00247092
0.00261704
0.00280447
0.00295464
0.00308643
0.0032215
0.00335656
0.00347233
0.00356711
0.00358808
0.00340722
2.81134e-06
0.00039214
0.000343927
0.000405261
0.000159715
0.00035614
0.00043064
0.000576633
0.000556688
0.000586996
0.000667374
0.000777517
0.000766864
0.000816079
0.000914747
0.00104376
0.00110788
0.00113175
0.00120343
0.00132045
0.00147478
0.00156304
0.00162739
0.0017291
0.00182909
0.00198342
0.00213459
0.00228692
0.00239348
0.00245586
0.00259375
0.00276299
0.00288889
0.00299602
0.00311074
0.00321978
0.0032841
0.0032773
0.00315184
0.0028046
6.1656e-06
0.000392837
0.000340745
0.000406696
0.000169796
0.000352604
0.000433451
0.000578435
0.000553722
0.000585873
0.000669928
0.000775226
0.000768891
0.000813337
0.000914698
0.00104403
0.0011061
0.00113225
0.00120088
0.00131978
0.00147308
0.00156
0.00162432
0.00172455
0.00182504
0.00197766
0.00213677
0.00227624
0.00237704
0.00243125
0.00255733
0.00271588
0.00283424
0.00293154
0.00303332
0.00312712
0.00317106
0.00314309
0.00300278
0.00265916
1.14021e-05
0.000391142
0.000339608
0.000409319
0.000183927
0.000346025
0.000438128
0.000577939
0.000551076
0.000583244
0.000673518
0.00077233
0.0007727
0.000809159
0.000915037
0.00104276
0.00110389
0.00113052
0.00119837
0.00131761
0.00146995
0.00155573
0.00161955
0.00171844
0.00181734
0.0019683
0.00212224
0.00225609
0.0023501
0.00239159
0.00250494
0.00265612
0.00277287
0.00286255
0.00294451
0.00301497
0.00303195
0.00296671
0.00278342
0.00239928
1.62451e-05
0.000389739
0.000338485
0.000411386
0.000196597
0.000342787
0.000443338
0.00057753
0.000548535
0.000580139
0.000676682
0.000770668
0.00077424
0.000806318
0.000914739
0.00104125
0.00110135
0.00112857
0.0011947
0.00131447
0.00146594
0.00155034
0.00161154
0.00170918
0.00180693
0.00195276
0.00210513
0.00222752
0.00231002
0.00234586
0.00244897
0.00259345
0.00270708
0.00278561
0.00284922
0.00290114
0.00290047
0.00281694
0.00261702
0.00222483
2.24083e-05
0.000386261
0.000339721
0.000412635
0.000210541
0.000336411
0.000449094
0.000575316
0.000546443
0.000575514
0.00067989
0.000768799
0.000774134
0.000803666
0.000913458
0.00103901
0.00109797
0.0011247
0.00118961
0.00131027
0.00145977
0.00154266
0.00160108
0.00169597
0.00179063
0.00193047
0.00207782
0.00218734
0.00225975
0.00229074
0.00238623
0.00252623
0.00263172
0.00270155
0.00275453
0.00279537
0.002788
0.00270009
0.00249458
0.002093
2.84233e-05
0.000382414
0.000341015
0.000413118
0.000223159
0.000332034
0.00045494
0.000573072
0.000544558
0.000570928
0.000682063
0.000767616
0.000772769
0.00080127
0.000911215
0.00103637
0.00109409
0.00111985
0.00118353
0.00130414
0.00145171
0.00153347
0.00158645
0.00167604
0.00176993
0.00190064
0.00204061
0.00214094
0.00220197
0.00222942
0.00231726
0.00244926
0.00255108
0.00261704
0.00266332
0.00269893
0.00269124
0.00260478
0.00240009
0.00199572
3.58794e-05
0.000376157
0.000344655
0.000412914
0.000236433
0.000324994
0.000460954
0.000569685
0.000542019
0.000566477
0.000683241
0.000766702
0.000769083
0.000798214
0.000907926
0.00103285
0.00108882
0.00111338
0.0011756
0.00129641
0.00144142
0.00152043
0.00156854
0.00165084
0.00174019
0.00186258
0.00199577
0.00208411
0.00213465
0.00215916
0.0022355
0.00236244
0.00246517
0.00253097
0.0025759
0.00260966
0.00260535
0.00252742
0.00233554
0.00195199
4.3398e-05
0.000369112
0.00034877
0.000411988
0.000248154
0.000320313
0.000466689
0.000566906
0.000539086
0.000562138
0.000683114
0.000765273
0.000766385
0.000793926
0.000904173
0.00102859
0.00108286
0.00110557
0.00116586
0.00128592
0.00142792
0.00150383
0.00154652
0.0016179
0.00170306
0.0018182
0.00193784
0.00201636
0.00205833
0.00207712
0.00214081
0.00225858
0.00236568
0.00244347
0.00250541
0.00256551
0.00259955
0.00256246
0.00239198
0.00196912
5.24783e-05
0.000359386
0.000354661
0.000411013
0.00025997
0.000309682
0.000471323
0.000564062
0.00053497
0.000557776
0.00068238
0.000763118
0.000763589
0.000787388
0.000899421
0.00102263
0.00107537
0.00109589
0.00115354
0.00127249
0.00141206
0.00148224
0.00151826
0.00158251
0.00165812
0.00176532
0.00187598
0.0019426
0.0019704
0.00198045
0.00202197
0.00210982
0.00219789
0.00226287
0.00231578
0.00237237
0.00243574
0.00252172
0.00270054
0.00311936
6.19169e-05
0.000348571
0.000361046
0.000409779
0.000269784
0.000304523
0.000474573
0.000562613
0.000530402
0.000553027
0.000680121
0.000760674
0.000759678
0.000780812
0.000893126
0.00101582
0.00106696
0.00108438
0.0011387
0.00125463
0.00139144
0.0014562
0.00148336
0.00153897
0.00160441
0.0017038
0.00180684
0.00186186
0.00188153
0.00188886
0.00192569
0.00201443
0.00212043
0.00220881
0.00227787
0.00234794
0.00243521
0.00255475
0.00275362
0.00313367
7.29157e-05
0.000335169
0.000367785
0.000409788
0.000279197
0.000298866
0.000475443
0.000561487
0.000525073
0.000547942
0.000676885
0.000758528
0.000753325
0.000773312
0.000884301
0.00100733
0.00105649
0.00107033
0.00112078
0.00123248
0.00136744
0.0014256
0.00144114
0.00149147
0.00154781
0.00163379
0.00173182
0.00178352
0.00179468
0.0018023
0.00185056
0.00195394
0.00207007
0.00215488
0.00221215
0.00226987
0.00235501
0.00248922
0.00271746
0.00313603
8.45888e-05
0.000321097
0.000373864
0.000409911
0.000286455
0.000294352
0.000474477
0.000561613
0.000520198
0.000540626
0.000672037
0.000755473
0.000747152
0.000764429
0.000874
0.000997231
0.00104463
0.00105385
0.00109944
0.00120524
0.00133642
0.00139158
0.00139346
0.00143529
0.00148658
0.00155907
0.00165566
0.0017133
0.00172521
0.00173519
0.001788
0.00189032
0.00200252
0.00208321
0.00213698
0.00219304
0.0022829
0.00242994
0.00267315
0.00309699
9.76546e-05
0.000305554
0.000378282
0.00041147
0.000293585
0.000290539
0.000470619
0.000561507
0.000515334
0.000533893
0.000665854
0.000751879
0.000740861
0.000752724
0.000860906
0.000984684
0.00103032
0.00103411
0.00107475
0.00117338
0.00129961
0.00135483
0.00134235
0.00137364
0.00142604
0.0014901
0.00158199
0.00164716
0.00166304
0.00166749
0.00171349
0.00181076
0.00192234
0.00200577
0.00206105
0.00211691
0.0022058
0.00235372
0.00259752
0.00301929
0.00011157
0.000290154
0.000380396
0.000413204
0.000299128
0.000286741
0.000465298
0.00056157
0.000511545
0.000524865
0.000656993
0.000747083
0.000734116
0.000739771
0.000844923
0.000969547
0.00101444
0.00101184
0.00104542
0.00113713
0.00125588
0.00131329
0.00129328
0.00130818
0.00136202
0.0014232
0.0015073
0.00157591
0.00159698
0.00160044
0.00163984
0.00172891
0.00183689
0.00192361
0.00198266
0.00203794
0.002122
0.00226516
0.00250673
0.00292855
0.000126558
0.000274438
0.000378854
0.000416588
0.000305109
0.000283396
0.00045763
0.000560293
0.000508406
0.000514765
0.000646809
0.000740753
0.000726866
0.000725304
0.000825058
0.000950303
0.000995863
0.000986954
0.00101233
0.00109644
0.00120704
0.00126835
0.00124536
0.00124123
0.00129324
0.00135617
0.00143331
0.0015016
0.00152905
0.00153399
0.00156516
0.00164349
0.00174577
0.00183503
0.0018983
0.00195398
0.0020338
0.00217184
0.00241045
0.00283176
0.000142218
0.000259639
0.000373591
0.000420108
0.000310542
0.000279447
0.000448627
0.00055824
0.000506173
0.000503646
0.000633104
0.000732214
0.000718819
0.000709677
0.000802229
0.000926907
0.000974564
0.000960405
0.000974578
0.00105114
0.00115462
0.00121611
0.00119617
0.00117672
0.00121961
0.00128602
0.00135951
0.00142621
0.00145812
0.00146436
0.0014889
0.00155694
0.00165254
0.00174159
0.00180773
0.00186451
0.00194201
0.00207625
0.00231233
0.00273312
0.00015838
0.000245645
0.000363725
0.000424429
0.000317316
0.000275202
0.000437708
0.000554419
0.000504174
0.000491962
0.000616933
0.000721608
0.000709849
0.0006923
0.000775673
0.000898831
0.000949393
0.000931235
0.000934225
0.00100179
0.00109754
0.00115952
0.00114604
0.00111404
0.0011423
0.00121104
0.00128596
0.00135046
0.00138467
0.00139333
0.00141197
0.00146843
0.00155507
0.00164265
0.0017122
0.00177187
0.00184877
0.00197959
0.00221183
0.00263023
0.000174594
0.000233102
0.000350211
0.000427884
0.000324746
0.000270178
0.000424785
0.00054934
0.000502652
0.000479447
0.000597532
0.000708092
0.000699714
0.000673447
0.000745611
0.000866277
0.000920569
0.000900266
0.000891009
0.00094683
0.00103736
0.00109956
0.0010909
0.00105298
0.00106512
0.00113038
0.0012089
0.00127344
0.00131004
0.00132146
0.0013354
0.00137964
0.00145516
0.00153969
0.0016127
0.00167641
0.00175397
0.00188208
0.00211065
0.00252672
0.000190061
0.000222284
0.000333103
0.000429781
0.000333918
0.000265088
0.000409186
0.000542235
0.000501204
0.000466428
0.000575045
0.000691333
0.000688439
0.000653329
0.000711365
0.000828196
0.000888214
0.000867068
0.000845535
0.000887881
0.000971802
0.00103571
0.00103469
0.000994151
0.00098867
0.00104399
0.00112631
0.0011966
0.00123665
0.00124988
0.00125922
0.00129149
0.00135416
0.00143291
0.00150825
0.00157722
0.00165784
0.00178517
0.00201075
0.0024241
0.000204157
0.000213859
0.000313995
0.000428326
0.000344006
0.000260553
0.000390624
0.000532659
0.000500211
0.000453159
0.000548697
0.000670236
0.00067586
0.000632758
0.000673156
0.000783782
0.000851606
0.000833095
0.00079915
0.000824282
0.0009001
0.000968095
0.00097627
0.000936728
0.000915756
0.000955544
0.00103675
0.00111505
0.00116223
0.00117869
0.00118494
0.00120669
0.00125552
0.00132478
0.00139912
0.00147303
0.00155893
0.00168812
0.00191217
0.00232294
0.0002163
0.000208254
0.000293034
0.000422007
0.000355008
0.000258192
0.000368801
0.000518769
0.000499378
0.000440804
0.000518552
0.000643499
0.000661607
0.000613031
0.000631657
0.000731908
0.000809053
0.00079808
0.000754191
0.000759261
0.000822193
0.000892564
0.000914828
0.000882586
0.000849487
0.000868699
0.000940604
0.00102545
0.0010842
0.00110796
0.00111356
0.00112592
0.00116062
0.00121784
0.00128791
0.00136475
0.00145638
0.00158951
0.00181423
0.00222368
0.00022597
0.000205792
0.000271788
0.000409244
0.000365346
0.00025943
0.000344352
0.00049869
0.000498114
0.000431108
0.000485032
0.000608706
0.000644112
0.000595642
0.000589756
0.000672461
0.000757414
0.000760839
0.000712548
0.000696169
0.000740004
0.000808207
0.000845916
0.000828878
0.000791476
0.000789884
0.00084372
0.000927275
0.000996895
0.0010321
0.00104181
0.00104885
0.0010716
0.00111629
0.00117893
0.00125526
0.00135095
0.00148874
0.00171606
0.00212587
0.000232667
0.000206121
0.000251106
0.000389079
0.000373809
0.000265888
0.000318625
0.000470191
0.000494245
0.000425743
0.000450742
0.000565082
0.000619954
0.000580156
0.000551686
0.000608237
0.000693837
0.000716915
0.000674152
0.000639004
0.000659575
0.000717176
0.00076534
0.000769122
0.000739997
0.00072364
0.000754454
0.000825189
0.000898961
0.000945956
0.000964733
0.000972377
0.000987733
0.00102138
0.00107514
0.00114805
0.00124542
0.00138712
0.00161768
0.00202892
0.000236024
0.000208623
0.000232441
0.0003613
0.000378184
0.000278003
0.000294321
0.000432667
0.000484274
0.000424635
0.000419065
0.000513463
0.000585003
0.000562776
0.000520237
0.000545783
0.000619151
0.000660448
0.000634233
0.000589555
0.000585923
0.000626068
0.000675017
0.000696886
0.000685259
0.000667963
0.000679084
0.00072884
0.000795091
0.000848609
0.000877897
0.00089151
0.000905373
0.000932091
0.00097791
0.00104581
0.00114238
0.00128625
0.00151968
0.00193282
0.000235619
0.000211894
0.000216969
0.000328777
0.000375681
0.000292367
0.000274477
0.000389022
0.000464009
0.000423742
0.00039427
0.000459729
0.00053718
0.000537479
0.000494574
0.000491454
0.000542115
0.000589968
0.000584981
0.000544781
0.000522779
0.000541548
0.000581823
0.000613281
0.000619639
0.000612041
0.00061514
0.000644777
0.000694928
0.000745556
0.000782
0.0008038
0.000821102
0.000845706
0.000886362
0.000949382
0.00104355
0.00118771
0.00142286
0.00183767
0.000231281
0.00021413
0.000206109
0.000295006
0.00036252
0.000303848
0.000262733
0.000345539
0.000430603
0.000416033
0.00037758
0.000410285
0.000478473
0.000499827
0.000468054
0.000446749
0.000471221
0.000511413
0.000522442
0.00049634
0.000468178
0.000467858
0.000493539
0.000524688
0.000543091
0.00054747
0.000551755
0.000569812
0.000603971
0.000645401
0.000682536
0.000710594
0.000733553
0.000759917
0.000798691
0.000858408
0.000950088
0.00109359
0.00132961
0.00174575
0.00022328
0.000213622
0.000200524
0.000263253
0.00033705
0.000307276
0.000259615
0.000307115
0.000385616
0.000396747
0.000363997
0.000368905
0.000417702
0.000449196
0.000433868
0.000407776
0.000410467
0.000435432
0.00045045
0.000438765
0.000414452
0.00040288
0.000413213
0.000436413
0.000458265
0.000471782
0.000481208
0.000495137
0.000518667
0.000550006
0.000582959
0.00061288
0.000640056
0.000669376
0.000708394
0.00076634
0.000855787
0.00099783
0.00123356
0.00165035
0.000212618
0.000209059
0.000196614
0.000235741
0.000303189
0.00029944
0.000258906
0.000276422
0.000337044
0.000364463
0.000345371
0.000335467
0.000362251
0.000391253
0.000389489
0.000368326
0.000359048
0.000368392
0.0003795
0.00037672
0.000361456
0.00034783
0.00034712
0.000359736
0.000378376
0.000395678
0.000410002
0.000424625
0.000443596
0.000467929
0.000495469
0.00052366
0.000551966
0.000583171
0.000623126
0.000680599
0.000768648
0.000909166
0.00114377
0.00156
0.000199654
0.000200141
0.000191766
0.000213421
0.00026638
0.000279684
0.000253225
0.000252569
0.000291656
0.000322632
0.00031745
0.000304398
0.0003137
0.000332798
0.000336186
0.000322112
0.000307617
0.000303134
0.000304002
0.000300711
0.000289945
0.00027703
0.000270209
0.00027374
0.000285727
0.000301281
0.000317079
0.000333222
0.000351659
0.000373611
0.000398889
0.000426686
0.000457093
0.000492206
0.000536647
0.000598219
0.000689606
0.00083289
0.00107009
0.00148902
0.000185039
0.000187095
0.000183351
0.00019379
0.000231409
0.000250517
0.000239258
0.000230733
0.000251905
0.000277629
0.000280545
0.000271743
0.000272442
0.000282286
0.000288086
0.00028359
0.000273905
0.000267111
0.000264734
0.000262144
0.000254929
0.00024405
0.000234349
0.000230154
0.00023237
0.000239176
0.000248344
0.00025894
0.000270853
0.00028402
0.00029834
0.000313902
0.000331816
0.000354799
0.000387731
0.000438465
0.000519938
0.00065475
0.000885688
0.00130143
0.000168262
0.000171049
0.000169617
0.000175136
0.000198313
0.000216944
0.000214719
0.000206984
0.000215277
0.000231188
0.000236154
0.00023027
0.000224614
0.000223435
0.000221814
0.00021435
0.000201518
0.000188067
0.000176899
0.00016708
0.000156703
0.000145992
0.000137397
0.000133571
0.00013572
0.000143604
0.000156304
0.0001729
0.000192897
0.000215997
0.000241865
0.000270814
0.000303769
0.000342743
0.000391696
0.000457708
0.000553222
0.000700546
0.000942299
0.00136695
0.000149835
0.000151921
0.000151828
0.00015521
0.000167432
0.000183134
0.000183889
0.000180286
0.000182362
0.000190011
0.000197121
0.000196787
0.000194031
0.000195599
0.000199587
0.000201387
0.000201818
0.000203299
0.000206325
0.000209825
0.000213101
0.00021519
0.000214802
0.000210731
0.000202599
0.000190446
0.000174153
0.000153447
0.000128485
9.97448e-05
6.79095e-05
3.30975e-05
-5.8963e-06
-5.16736e-05
-0.000108717
-0.000184304
-0.000290833
-0.000450575
-0.000706267
-0.00114678
0.000128298
0.000129685
0.000129474
0.000130326
0.00013677
0.000144516
0.000147326
0.000143422
0.000140614
0.000141881
0.000140686
0.000135296
0.000127703
0.000118391
0.00010817
9.74454e-05
8.48886e-05
7.01677e-05
5.53481e-05
4.22419e-05
3.09177e-05
2.13288e-05
1.4661e-05
1.26571e-05
1.62002e-05
2.50859e-05
3.89767e-05
5.75544e-05
8.04276e-05
0.000106775
0.000135819
0.000167516
0.000202907
0.000244286
0.000295838
0.000364647
0.000462982
0.000612937
0.000856944
0.00128338
0.000105827
0.00010686
0.000105597
0.000106364
0.000108211
0.000112119
0.000115281
0.000112628
0.000111866
0.000113612
0.000114496
0.000115787
0.000117379
0.000118202
0.000119696
0.0001228
0.000125846
0.000127416
0.000127883
0.000127457
0.000124905
0.000118543
0.000107512
9.18801e-05
7.16819e-05
4.67952e-05
1.76283e-05
-1.53758e-05
-5.15395e-05
-8.96322e-05
-0.000129554
-0.000171957
-0.000218124
-0.000270375
-0.000332797
-0.000412494
-0.000521683
-0.000682377
-0.000936791
-0.00137304
7.793e-05
7.6461e-05
7.49144e-05
7.12795e-05
6.96216e-05
6.8556e-05
6.46996e-05
6.08339e-05
5.42209e-05
4.67471e-05
4.04372e-05
3.19639e-05
2.0837e-05
9.42574e-06
-2.33893e-06
-1.5537e-05
-2.93998e-05
-4.25515e-05
-5.46919e-05
-6.56652e-05
-7.43052e-05
-7.90698e-05
-7.91165e-05
-7.44734e-05
-6.51853e-05
-5.12318e-05
-3.3067e-05
-1.12097e-05
1.3174e-05
3.90671e-05
6.65532e-05
9.6322e-05
0.00012974
0.000169257
0.00021911
0.000286494
0.000383668
0.000532679
0.000775786
0.00120117
5.4542e-05
5.37958e-05
5.07494e-05
4.80617e-05
4.49894e-05
4.21824e-05
4.08133e-05
3.75779e-05
3.48182e-05
3.40352e-05
3.3053e-05
3.2721e-05
3.41012e-05
3.55921e-05
3.66344e-05
3.83177e-05
4.04031e-05
4.12797e-05
4.01852e-05
3.73451e-05
3.2297e-05
2.36419e-05
1.03274e-05
-7.67919e-06
-3.01286e-05
-5.68669e-05
-8.76349e-05
-0.00012209
-0.000158993
-0.000197221
-0.000236739
-0.000278178
-0.000322915
-0.000373389
-0.000433793
-0.00051123
-0.000617893
-0.000775808
-0.00102725
-0.00146043
1.69453e-05
1.3741e-05
8.30379e-06
2.9798e-07
-7.82979e-06
-1.62908e-05
-2.61797e-05
-3.53919e-05
-4.55693e-05
-5.6706e-05
-6.67772e-05
-7.70037e-05
-8.82928e-05
-9.91325e-05
-0.00010913
-0.000119226
-0.000129147
-0.000137647
-0.000144287
-0.000149293
-0.000152132
-0.000151467
-0.000146391
-0.000136892
-0.000123131
-0.000105284
-8.36547e-05
-5.8718e-05
-3.17694e-05
-3.84998e-06
2.5094e-05
5.57567e-05
8.96326e-05
0.000129257
0.000178917
0.000245783
0.000342132
0.000490059
0.000731891
0.00115585
-3.75531e-07
-2.37579e-06
-8.6724e-06
-1.4776e-05
-2.34011e-05
-3.12014e-05
-3.81873e-05
-4.63233e-05
-5.22693e-05
-5.70242e-05
-6.15258e-05
-6.38551e-05
-6.40242e-05
-6.37235e-05
-6.23761e-05
-5.92096e-05
-5.5081e-05
-5.11966e-05
-4.76508e-05
-4.45982e-05
-4.3165e-05
-4.49176e-05
-5.06182e-05
-6.04004e-05
-7.44693e-05
-9.29071e-05
-0.00011559
-0.000141946
-0.000170594
-0.000200757
-0.000232663
-0.000267013
-0.000305235
-0.000349755
-0.000404813
-0.000477543
-0.000580248
-0.000735024
-0.000984203
-0.00141603
-4.91654e-05
-5.37982e-05
-6.419e-05
-7.73058e-05
-9.254e-05
-0.000108322
-0.00012526
-0.000141421
-0.000157141
-0.000172685
-0.000186161
-0.000198317
-0.000209619
-0.000218913
-0.000225743
-0.000230806
-0.000233715
-0.000233645
-0.000230514
-0.00022474
-0.00021599
-0.000203418
-0.000186547
-0.000165461
-0.000140299
-0.000111299
-7.87319e-05
-4.33706e-05
-6.83372e-06
3.00572e-05
6.71917e-05
0.000105057
0.000145014
0.000189494
0.000242714
0.000311817
0.000409144
0.000556813
0.000797083
0.00121797
0.00315259
0.0033114
0.00378915
0.00420417
0.00442378
0.00441867
0.0042397
0.00397423
0.00369929
0.00346344
0.00328878
0.00317057
0.00308881
0.00301945
0.00294998
0.00287592
0.00280602
0.00274174
0.00268027
0.00261598
0.00255012
0.00248352
0.00241381
0.00234775
0.00228272
0.00222932
0.00217571
0.00212548
0.0020679
0.00201314
0.00196246
0.00190182
0.00185654
0.00177645
0.00168029
0.00157514
0.00145297
0.0012894
0.00109793
0.000977645
0.000832752
0.000746224
0.000753921
0.000696658
0.000699471
0.000527704
-4.75305e-05
-0.000407637
-0.000375696
-0.000545474
-0.0010062
-0.00142876
-0.00183308
-0.00232886
-0.00292071
-0.0035958
-0.00432481
-0.00506661
-0.00571661
-0.00614871
-0.00618308
-0.00569905
-0.00489535
-0.00398237
-0.00318097
-0.0027584
-0.00266064
-0.00258348
-0.00239474
-0.00219513
-0.00203982
-0.00187535
-0.00167646
-0.00147739
-0.00130821
-0.00117201
-0.00105777
-0.000953948
-0.000852519
-0.000750038
-0.000645278
-0.000538416
-0.000428899
-0.000317291
-0.000202066
-8.46135e-05
3.81168e-05
0.000162934
0.000295089
0.00042921
0.000571997
0.000718666
0.000871622
0.00103606
0.00119881
0.00138452
0.00156705
0.00177006
0.00200187
0.00225766
0.00247149
0.00258912
0.00310805
0.00363195
0.00398663
0.00412581
0.00406776
0.00388178
0.00364493
0.00341484
0.00322445
0.00308638
0.00299751
0.00293669
0.00288584
0.00282961
0.00276966
0.00270783
0.00264611
0.00258088
0.00251741
0.00245614
0.00238932
0.00232246
0.00225527
0.002203
0.00215075
0.00210202
0.00204397
0.00198934
0.00193748
0.00187578
0.00183128
0.00174988
0.00165436
0.00155014
0.00143076
0.00126939
0.00108187
0.000968926
0.0008193
0.00073337
0.000738486
0.000670442
0.000674117
0.000502357
-6.941e-05
-0.000419472
-0.000381549
-0.000554033
-0.00101937
-0.00144077
-0.00183944
-0.00232966
-0.00291302
-0.00357833
-0.00430042
-0.00503386
-0.00567501
-0.00610574
-0.00614882
-0.00567402
-0.00487888
-0.00397546
-0.00317682
-0.00275371
-0.00265655
-0.00258202
-0.0023933
-0.00219231
-0.00203635
-0.00187399
-0.00167748
-0.00147926
-0.00130939
-0.00117223
-0.0010574
-0.000953367
-0.000852057
-0.000749792
-0.000645187
-0.000538396
-0.000428897
-0.000317291
-0.000202065
-8.46147e-05
3.81182e-05
0.000162933
0.00029509
0.000429209
0.000571997
0.000718668
0.000871618
0.00103607
0.00119881
0.00138452
0.00156705
0.00177004
0.00200185
0.00225784
0.00234622
0.00248352
0.00303007
0.00358496
0.00397015
0.0041367
0.00409952
0.00392482
0.00368946
0.0034524
0.00324864
0.00309428
0.00299223
0.00292707
0.00287955
0.00283113
0.00277548
0.00271326
0.00264851
0.0025793
0.0025116
0.00244936
0.0023827
0.00231118
0.00223779
0.00217889
0.00212541
0.00207724
0.00201959
0.0019591
0.00190238
0.00183946
0.00178397
0.00169949
0.00160946
0.00150267
0.00138083
0.00123798
0.00107161
0.000960964
0.000823891
0.00072973
0.000716577
0.000625222
0.000577898
0.000413142
-7.17457e-05
-0.000392263
-0.000411802
-0.000612844
-0.00104692
-0.00145167
-0.00184305
-0.00232868
-0.00289932
-0.00353798
-0.00422806
-0.00492347
-0.00552617
-0.00593832
-0.00599512
-0.00556559
-0.00482496
-0.00396437
-0.00319089
-0.00277314
-0.00266714
-0.00258242
-0.00239185
-0.0021931
-0.00203892
-0.00187478
-0.00167675
-0.0014785
-0.00130973
-0.00117341
-0.00105879
-0.000954654
-0.000852918
-0.000750215
-0.000645331
-0.000538423
-0.000428895
-0.000317287
-0.000202061
-8.46116e-05
3.81214e-05
0.000162935
0.000295093
0.00042921
0.000571999
0.000718666
0.00087162
0.00103606
0.00119881
0.00138451
0.00156704
0.00176999
0.00200173
0.00225797
0.00205682
0.00216953
0.00269417
0.00324131
0.00363433
0.00382446
0.00382233
0.00368639
0.00348767
0.00328107
0.00309961
0.00295668
0.00285746
0.00279313
0.00275057
0.00271256
0.00267051
0.00262029
0.00256523
0.00250326
0.00243696
0.00237582
0.00231411
0.00225033
0.00217882
0.00211895
0.00206527
0.00202066
0.00196695
0.00190635
0.00184869
0.00178237
0.00172872
0.00164678
0.00155873
0.00145385
0.00133938
0.00121347
0.00105363
0.000947443
0.000814974
0.000706294
0.000680152
0.000571942
0.000499073
0.000363595
-6.80188e-05
-0.000392449
-0.000452092
-0.000654658
-0.00106402
-0.00146088
-0.00185044
-0.00232531
-0.00287617
-0.00348443
-0.00414387
-0.00480528
-0.00537399
-0.00577163
-0.0058485
-0.00546196
-0.00476469
-0.00394478
-0.0031951
-0.00277814
-0.00266265
-0.0025749
-0.00238533
-0.00218567
-0.00203007
-0.00186782
-0.00167534
-0.00148098
-0.00131291
-0.00117548
-0.00105965
-0.000954494
-0.000852517
-0.000749955
-0.000645239
-0.000538409
-0.00042889
-0.000317282
-0.000202054
-8.46065e-05
3.81265e-05
0.000162938
0.000295096
0.000429212
0.000572001
0.000718666
0.000871621
0.00103606
0.00119881
0.00138449
0.00156703
0.00176993
0.0020016
0.00225813
0.00188953
0.0020126
0.00255319
0.00311906
0.00353244
0.00374389
0.00376252
0.0036448
0.00346037
0.00326415
0.00308898
0.00294887
0.00284849
0.00278219
0.0027389
0.00270381
0.00266749
0.00262256
0.00257032
0.00250921
0.00244091
0.00237364
0.00230883
0.00224549
0.00217461
0.0021095
0.00204937
0.002001
0.00194785
0.00188542
0.00182094
0.00175185
0.00169225
0.00160761
0.00152123
0.00141827
0.00130281
0.00118303
0.00103675
0.000931631
0.000804025
0.000693023
0.000649369
0.000534138
0.000439316
0.000300501
-8.67048e-05
-0.000392203
-0.000477904
-0.000694389
-0.00108732
-0.00147315
-0.00185302
-0.00231463
-0.00284912
-0.0034289
-0.00405442
-0.00467932
-0.00520943
-0.00558069
-0.00566226
-0.00531689
-0.00467764
-0.00391069
-0.00319614
-0.00278948
-0.00266718
-0.00257065
-0.0023803
-0.0021826
-0.00202707
-0.00186563
-0.00167329
-0.00148069
-0.00131444
-0.0011778
-0.00106191
-0.000956398
-0.000853727
-0.00075051
-0.000645399
-0.000538414
-0.000428871
-0.000317263
-0.000202039
-8.45942e-05
3.81366e-05
0.000162946
0.000295103
0.000429215
0.000572006
0.000718666
0.000871624
0.00103605
0.00119881
0.00138447
0.00156701
0.00176988
0.00200145
0.00225828
0.0017451
0.00185817
0.00238939
0.00294822
0.00335719
0.00356701
0.00358651
0.00347082
0.00328942
0.00309726
0.00292787
0.00279496
0.00270201
0.00264171
0.0026031
0.00257252
0.0025416
0.00250355
0.00245689
0.00240225
0.00233867
0.00227415
0.00221004
0.00215172
0.00208853
0.00202823
0.00197016
0.00192065
0.0018719
0.00181313
0.00175295
0.00168281
0.00162262
0.00154323
0.00146127
0.00136359
0.00125156
0.00114488
0.00100912
0.0009036
0.000784281
0.000664916
0.000605246
0.000486104
0.000364711
0.000229648
-0.000102966
-0.00039354
-0.000515447
-0.000741903
-0.00110946
-0.0014807
-0.00185632
-0.00230319
-0.00281868
-0.00336964
-0.0039594
-0.00454902
-0.00504331
-0.00539238
-0.00548958
-0.0051946
-0.00460861
-0.00388745
-0.00320166
-0.00279711
-0.00266402
-0.00256192
-0.00237279
-0.00217507
-0.00201818
-0.00185705
-0.0016706
-0.00148217
-0.00131746
-0.00118026
-0.00106315
-0.000956461
-0.000853409
-0.000750289
-0.000645334
-0.000538408
-0.000428856
-0.000317242
-0.000202017
-8.45764e-05
3.81519e-05
0.000162957
0.000295113
0.000429221
0.000572011
0.000718668
0.000871627
0.00103604
0.0011988
0.00138444
0.00156699
0.00176982
0.0020013
0.00225844
0.00164172
0.00175225
0.00227858
0.00282687
0.00322176
0.00341699
0.00342561
0.00330695
0.00313087
0.00295029
0.00279837
0.00268735
0.00261745
0.00257736
0.00255366
0.00253261
0.00250769
0.00247404
0.00243083
0.00237908
0.00231882
0.00225616
0.00219259
0.00213456
0.0020743
0.00201606
0.00195675
0.00190292
0.00184948
0.00178967
0.00172709
0.00165364
0.00158823
0.00150503
0.00142371
0.00132874
0.00121638
0.00111193
0.000984893
0.000881296
0.000764118
0.000641985
0.00057038
0.000446409
0.000312061
0.000179264
-0.000118689
-0.000401771
-0.000545231
-0.000774914
-0.00112436
-0.00148585
-0.00185547
-0.00228495
-0.00278112
-0.00330428
-0.00385855
-0.00441288
-0.0048741
-0.00520117
-0.00530261
-0.00504293
-0.00450832
-0.00383849
-0.00318989
-0.00279834
-0.00266115
-0.00255346
-0.00236429
-0.00216864
-0.00201276
-0.00185396
-0.0016679
-0.00148194
-0.00131891
-0.00118253
-0.00106522
-0.000958251
-0.000854556
-0.000750772
-0.000645405
-0.000538347
-0.000428795
-0.000317197
-0.000201983
-8.45494e-05
3.81737e-05
0.000162973
0.000295126
0.00042923
0.000572019
0.00071867
0.000871632
0.00103604
0.0011988
0.00138442
0.00156696
0.00176976
0.00200115
0.00225861
0.00162099
0.00175189
0.00229216
0.00283276
0.00320074
0.00335473
0.00331771
0.00316198
0.00296584
0.00278328
0.00263874
0.00253825
0.0024783
0.00244667
0.00242951
0.00241377
0.00239074
0.00235681
0.00231095
0.00225786
0.00219879
0.00214014
0.00208201
0.00202816
0.00197424
0.00192068
0.00186673
0.00181407
0.0017624
0.00170438
0.00164624
0.00157699
0.00151202
0.0014337
0.00135549
0.00126983
0.0011626
0.0010636
0.000947348
0.000844152
0.000730613
0.000607054
0.000520761
0.000396475
0.000251992
0.000111383
-0.000151282
-0.000418408
-0.00057971
-0.000814436
-0.00114715
-0.00149275
-0.00185498
-0.00226779
-0.00274153
-0.00323809
-0.00375648
-0.00427553
-0.00470678
-0.00501043
-0.00511628
-0.00490219
-0.00442631
-0.00380764
-0.00319152
-0.00280497
-0.00265855
-0.00254474
-0.002357
-0.00216201
-0.00200418
-0.00184473
-0.00166451
-0.00148268
-0.00132166
-0.00118499
-0.0010667
-0.000958541
-0.000854365
-0.000750629
-0.000645396
-0.000538356
-0.000428768
-0.000317153
-0.000201939
-8.45129e-05
3.82033e-05
0.000162996
0.000295144
0.000429243
0.00057203
0.000718674
0.000871637
0.00103603
0.0011988
0.00138439
0.00156693
0.00176969
0.002001
0.00225878
0.00155576
0.00161775
0.00207706
0.00254552
0.00286563
0.00300419
0.00298688
0.00287631
0.00273539
0.00260473
0.00250281
0.00243288
0.00239
0.00236389
0.00234493
0.00232626
0.00230277
0.00227192
0.00223234
0.00218741
0.00213797
0.00208847
0.00203839
0.00199015
0.00194005
0.00188927
0.00183644
0.0017834
0.00172946
0.00166866
0.00160918
0.00153908
0.00147219
0.00139274
0.00131124
0.00122815
0.00112394
0.00102513
0.000913015
0.000811709
0.000701515
0.000576063
0.000481369
0.000357203
0.000205761
6.23306e-05
-0.000171495
-0.000429309
-0.000607449
-0.000842401
-0.00115946
-0.00149198
-0.00184657
-0.00224251
-0.00269253
-0.00316288
-0.00364702
-0.00413128
-0.00453376
-0.00481614
-0.00492382
-0.00474462
-0.00431746
-0.00374682
-0.00316785
-0.00279638
-0.00264826
-0.00253092
-0.00234408
-0.00215128
-0.0019961
-0.00184
-0.00166087
-0.00148181
-0.00132259
-0.00118673
-0.00106839
-0.000959966
-0.000855258
-0.000750916
-0.000645307
-0.000538182
-0.000428638
-0.000317066
-0.000201875
-8.44633e-05
3.82426e-05
0.000163026
0.000295168
0.000429259
0.000572043
0.00071868
0.000871644
0.00103602
0.00119879
0.00138436
0.00156689
0.00176963
0.00200084
0.00225895
0.0035301
0.00346401
0.00299124
0.00249831
0.00214486
0.00196675
0.001945