/*--------------------------------*- C++ -*----------------------------------*\
| =========                 |                                                 |
| \\      /  F ield         | OpenFOAM: The Open Source CFD Toolbox           |
|  \\    /   O peration     | Version:  2312                                  |
|   \\  /    A nd           | Website:  www.openfoam.com                      |
|    \\/     M anipulation  |                                                 |
\*---------------------------------------------------------------------------*/
FoamFile
{
    version     2.0;
    format      ascii;
    arch        "LSB;label=32;scalar=64";
    class       surfaceScalarField;
    location    "0.15";
    object      phi;
}
// * * * * * * * * * * * * * * * * * * * * * * * * * * * * * * * * * * * * * //

dimensions      [0 3 -1 0 0 0 0];

oriented        oriented;

internalField   nonuniform List<scalar> 
11020
(
3.87614e-06
-4.20977e-08
3.87239e-06
2.52539e-07
3.87511e-06
-1.04468e-07
3.88167e-06
-3.15861e-07
3.88812e-06
-3.01528e-07
3.88867e-06
4.0666e-08
3.88563e-06
1.84361e-07
3.88434e-06
1.88722e-07
3.88312e-06
2.34158e-08
3.88277e-06
-6.28318e-08
3.88205e-06
-1.02363e-07
3.88171e-06
-3.81272e-08
3.8797e-06
1.91799e-08
3.87851e-06
7.83548e-08
3.87719e-06
8.77736e-08
3.87625e-06
8.38155e-08
3.87509e-06
4.67254e-08
3.87557e-06
1.3468e-08
3.87467e-06
-1.94645e-08
3.87368e-06
-3.41854e-08
3.87257e-06
-4.59055e-08
3.87203e-06
-4.51734e-08
3.87151e-06
-4.14879e-08
3.87066e-06
-2.8608e-08
3.8696e-06
-1.9305e-08
3.86893e-06
-8.00403e-09
3.86801e-06
-2.9476e-10
3.86724e-06
7.83907e-09
3.86634e-06
1.27362e-08
3.86535e-06
1.76467e-08
3.86432e-06
1.86624e-08
3.8631e-06
2.03956e-08
3.86172e-06
2.00727e-08
3.86024e-06
1.99376e-08
3.85863e-06
1.89223e-08
3.85694e-06
1.83565e-08
3.85505e-06
1.72689e-08
3.85299e-06
1.67961e-08
3.85066e-06
1.62515e-08
1.62545e-08
3.84816e-06
4.18207e-06
-3.83067e-08
4.18985e-06
2.44758e-07
4.186e-06
-1.00616e-07
4.18472e-06
-3.14588e-07
4.1819e-06
-2.98702e-07
4.18884e-06
3.3721e-08
4.19024e-06
1.82958e-07
4.19728e-06
1.81683e-07
4.19377e-06
2.69261e-08
4.19214e-06
-6.12026e-08
4.18605e-06
-9.6271e-08
4.1859e-06
-3.79778e-08
4.18354e-06
2.15428e-08
4.18643e-06
7.54688e-08
4.18716e-06
8.70371e-08
4.19e-06
8.09798e-08
4.18941e-06
4.73167e-08
4.19077e-06
1.20997e-08
4.18825e-06
-1.69411e-08
4.1859e-06
-3.18351e-08
4.18237e-06
-4.23763e-08
4.18024e-06
-4.30437e-08
4.17803e-06
-3.92763e-08
4.17631e-06
-2.68926e-08
4.1743e-06
-1.72947e-08
4.17353e-06
-7.22746e-09
4.1722e-06
1.03797e-09
4.1718e-06
8.23599e-09
4.17093e-06
1.36058e-08
4.17042e-06
1.81552e-08
4.16966e-06
1.94217e-08
4.16907e-06
2.09901e-08
4.16837e-06
2.07737e-08
4.16783e-06
2.04758e-08
4.16716e-06
1.95938e-08
4.16657e-06
1.89378e-08
4.16583e-06
1.80086e-08
4.16527e-06
1.73582e-08
4.16479e-06
1.67386e-08
1.63378e-08
4.1647e-06
4.51661e-06
-3.48563e-08
4.53016e-06
2.31211e-07
4.52498e-06
-9.54347e-08
4.51347e-06
-3.03078e-07
4.501e-06
-2.86231e-07
4.5083e-06
2.64191e-08
4.51762e-06
1.73639e-07
4.52888e-06
1.70426e-07
4.52638e-06
2.94187e-08
4.52136e-06
-5.61761e-08
4.51194e-06
-8.68573e-08
4.50995e-06
-3.59851e-08
4.50955e-06
2.19452e-08
4.51473e-06
7.02909e-08
4.51911e-06
8.26568e-08
4.52459e-06
7.5493e-08
4.52606e-06
4.58537e-08
4.52645e-06
1.17082e-08
4.52344e-06
-1.39303e-08
4.51995e-06
-2.83462e-08
4.51484e-06
-3.72659e-08
4.51066e-06
-3.8863e-08
4.50651e-06
-3.51289e-08
4.50399e-06
-2.43712e-08
4.50158e-06
-1.48899e-08
4.50046e-06
-6.10004e-09
4.49927e-06
2.22689e-09
4.49901e-06
8.48917e-09
4.49875e-06
1.38654e-08
4.49899e-06
1.79212e-08
4.49892e-06
1.94904e-08
4.49902e-06
2.08915e-08
4.49899e-06
2.07973e-08
4.49907e-06
2.0399e-08
4.49903e-06
1.96325e-08
4.49903e-06
1.89398e-08
4.49887e-06
1.81651e-08
4.49875e-06
1.74817e-08
4.49863e-06
1.6863e-08
1.62965e-08
4.49867e-06
4.8783e-06
-3.22114e-08
4.89384e-06
2.15678e-07
4.88925e-06
-9.0845e-08
4.87311e-06
-2.86939e-07
4.8553e-06
-2.68429e-07
4.8608e-06
2.09205e-08
4.8731e-06
1.61343e-07
4.88643e-06
1.571e-07
4.88523e-06
3.06124e-08
4.87918e-06
-5.01195e-08
4.86865e-06
-7.63363e-08
4.86525e-06
-3.25815e-08
4.86547e-06
2.1727e-08
4.87122e-06
6.45432e-08
4.87731e-06
7.65666e-08
4.88362e-06
6.91754e-08
4.88641e-06
4.30713e-08
4.88626e-06
1.18573e-08
4.88352e-06
-1.11877e-08
4.87973e-06
-2.45605e-08
4.87467e-06
-3.22068e-08
4.86945e-06
-3.36434e-08
4.86465e-06
-3.03252e-08
4.86135e-06
-2.10718e-08
4.85882e-06
-1.23659e-08
4.85706e-06
-4.34088e-09
4.85587e-06
3.41866e-09
4.85529e-06
9.06834e-09
4.85509e-06
1.40717e-08
4.85542e-06
1.75854e-08
4.8558e-06
1.91183e-08
4.85629e-06
2.03967e-08
4.85672e-06
2.03709e-08
4.857e-06
2.01198e-08
4.85723e-06
1.93956e-08
4.85744e-06
1.87371e-08
4.85762e-06
1.79766e-08
4.85787e-06
1.72373e-08
4.85819e-06
1.65434e-08
1.58129e-08
4.85867e-06
5.26811e-06
-2.96786e-08
5.28447e-06
1.99323e-07
5.28003e-06
-8.64065e-08
5.26267e-06
-2.69574e-07
5.24282e-06
-2.48586e-07
5.2473e-06
1.64466e-08
5.26002e-06
1.48619e-07
5.27422e-06
1.42897e-07
5.27365e-06
3.11821e-08
5.26763e-06
-4.40909e-08
5.25694e-06
-6.56532e-08
5.25304e-06
-2.86835e-08
5.25324e-06
2.15285e-08
5.25896e-06
5.88259e-08
5.26535e-06
7.0181e-08
5.27181e-06
6.27152e-08
5.27501e-06
3.98686e-08
5.2749e-06
1.19628e-08
5.27215e-06
-8.43686e-09
5.26834e-06
-2.07494e-08
5.26345e-06
-2.73163e-08
5.25825e-06
-2.84458e-08
5.25329e-06
-2.53627e-08
5.24958e-06
-1.73652e-08
5.24675e-06
-9.53458e-09
5.24488e-06
-2.46499e-09
5.24359e-06
4.70965e-09
5.24297e-06
9.68469e-09
5.24279e-06
1.42488e-08
5.24308e-06
1.72968e-08
5.24347e-06
1.87298e-08
5.24394e-06
1.99271e-08
5.2444e-06
1.99153e-08
5.24477e-06
1.97495e-08
5.2451e-06
1.90628e-08
5.24541e-06
1.84293e-08
5.24571e-06
1.76723e-08
5.24607e-06
1.68826e-08
5.24648e-06
1.61279e-08
1.53742e-08
5.24692e-06
5.68887e-06
-2.70902e-08
5.7054e-06
1.82789e-07
5.70071e-06
-8.17112e-08
5.68331e-06
-2.52176e-07
5.66319e-06
-2.28466e-07
5.66723e-06
1.24099e-08
5.67964e-06
1.36204e-07
5.69361e-06
1.28932e-07
5.69341e-06
3.1376e-08
5.68755e-06
-3.82252e-08
5.67758e-06
-5.56888e-08
5.67337e-06
-2.44697e-08
5.67378e-06
2.11212e-08
5.67905e-06
5.35522e-08
5.68533e-06
6.39062e-08
5.69131e-06
5.67315e-08
5.69448e-06
3.66984e-08
5.69433e-06
1.21136e-08
5.69175e-06
-5.85228e-09
5.68798e-06
-1.69806e-08
5.68336e-06
-2.26957e-08
5.67835e-06
-2.34419e-08
5.67355e-06
-2.05608e-08
5.66991e-06
-1.37263e-08
5.66705e-06
-6.66953e-09
5.66501e-06
-4.33684e-10
5.66366e-06
6.06533e-09
5.66294e-06
1.04059e-08
5.66273e-06
1.44558e-08
5.66288e-06
1.71508e-08
5.66316e-06
1.84454e-08
5.66354e-06
1.9552e-08
5.66392e-06
1.95341e-08
5.66424e-06
1.94308e-08
5.66449e-06
1.88079e-08
5.66474e-06
1.81791e-08
5.665e-06
1.74153e-08
5.66533e-06
1.65552e-08
5.66573e-06
1.5722e-08
1.48105e-08
5.6663e-06
6.14318e-06
-2.44015e-08
6.1599e-06
1.66074e-07
6.15485e-06
-7.66637e-08
6.13742e-06
-2.34751e-07
6.11726e-06
-2.08298e-07
6.12111e-06
8.55475e-09
6.13332e-06
1.23993e-07
6.14695e-06
1.15303e-07
6.14701e-06
3.13198e-08
6.14118e-06
-3.23965e-08
6.13181e-06
-4.63219e-08
6.12748e-06
-2.0143e-08
6.128e-06
2.06038e-08
6.13304e-06
4.8513e-08
6.13905e-06
5.78982e-08
6.14476e-06
5.10212e-08
6.14775e-06
3.37037e-08
6.14762e-06
1.22493e-08
6.14507e-06
-3.30431e-09
6.14134e-06
-1.32472e-08
6.13677e-06
-1.81331e-08
6.13196e-06
-1.86229e-08
6.12734e-06
-1.59451e-08
6.12372e-06
-1.01083e-08
6.1208e-06
-3.75003e-09
6.11878e-06
1.58751e-09
6.11748e-06
7.3695e-09
6.11667e-06
1.12102e-08
6.11638e-06
1.47476e-08
6.1164e-06
1.71303e-08
6.11663e-06
1.822e-08
6.11693e-06
1.92479e-08
6.11721e-06
1.92559e-08
6.11746e-06
1.91761e-08
6.11766e-06
1.86129e-08
6.11787e-06
1.79677e-08
6.11809e-06
1.71909e-08
6.11839e-06
1.62574e-08
6.11878e-06
1.53317e-08
1.42008e-08
6.11939e-06
6.63383e-06
-2.16686e-08
6.6504e-06
1.49504e-07
6.645e-06
-7.12647e-08
6.62781e-06
-2.17565e-07
6.60811e-06
-1.88591e-07
6.61167e-06
4.99197e-09
6.6235e-06
1.12159e-07
6.63618e-06
1.02626e-07
6.63667e-06
3.08317e-08
6.63095e-06
-2.66782e-08
6.62249e-06
-3.78612e-08
6.61826e-06
-1.59114e-08
6.61878e-06
2.00787e-08
6.62356e-06
4.37358e-08
6.62898e-06
5.24791e-08
6.63434e-06
4.56652e-08
6.63683e-06
3.12064e-08
6.6368e-06
1.22843e-08
6.63426e-06
-7.69402e-10
6.6308e-06
-9.78304e-09
6.62634e-06
-1.36785e-08
6.62191e-06
-1.41927e-08
6.61744e-06
-1.14727e-08
6.61408e-06
-6.74829e-09
6.6113e-06
-9.63953e-10
6.6093e-06
3.58167e-09
6.60795e-06
8.72186e-09
6.60714e-06
1.20222e-08
6.60677e-06
1.5118e-08
6.60671e-06
1.71854e-08
6.60675e-06
1.81799e-08
6.60693e-06
1.90732e-08
6.60698e-06
1.91992e-08
6.60711e-06
1.90482e-08
6.60715e-06
1.85706e-08
6.60727e-06
1.78548e-08
6.60736e-06
1.70925e-08
6.60755e-06
1.60724e-08
6.60761e-06
1.52664e-08
1.40533e-08
6.60776e-06
7.16363e-06
-1.88689e-08
7.18012e-06
1.33017e-07
7.17446e-06
-6.56101e-08
7.15732e-06
-2.00426e-07
7.13798e-06
-1.6925e-07
7.14121e-06
1.7605e-09
7.15292e-06
1.00458e-07
7.16469e-06
9.08476e-08
7.16565e-06
2.98758e-08
7.15997e-06
-2.09983e-08
7.15218e-06
-3.00696e-08
7.148e-06
-1.17339e-08
7.14858e-06
1.95047e-08
7.15302e-06
3.92947e-08
7.15817e-06
4.73216e-08
7.16309e-06
4.07498e-08
7.16541e-06
2.88811e-08
7.16533e-06
1.23719e-08
7.16288e-06
1.67551e-09
7.1595e-06
-6.40242e-09
7.15516e-06
-9.33961e-09
7.15088e-06
-9.90887e-09
7.14664e-06
-7.23297e-09
7.14331e-06
-3.4151e-09
7.14063e-06
1.70877e-09
7.13872e-06
5.49781e-09
7.13748e-06
9.96118e-09
7.13672e-06
1.27752e-08
7.13634e-06
1.54984e-08
7.13627e-06
1.72603e-08
7.1362e-06
1.82469e-08
7.13624e-06
1.90379e-08
7.1361e-06
1.93397e-08
7.13595e-06
1.91924e-08
7.13564e-06
1.88808e-08
7.13529e-06
1.8206e-08
7.13482e-06
1.75646e-08
7.13444e-06
1.64472e-08
7.13476e-06
1.49521e-08
1.29592e-08
7.13585e-06
7.7358e-06
-1.60608e-08
7.75186e-06
1.16949e-07
7.74603e-06
-5.97816e-08
7.72911e-06
-1.83505e-07
7.71065e-06
-1.50786e-07
7.7134e-06
-9.88623e-10
7.72473e-06
8.91231e-08
7.73521e-06
8.03742e-08
7.73662e-06
2.84655e-08
7.73117e-06
-1.55545e-08
7.72434e-06
-2.32338e-08
7.72027e-06
-7.66538e-09
7.7211e-06
1.86731e-08
7.72477e-06
3.56281e-08
7.7298e-06
4.22902e-08
7.73374e-06
3.68113e-08
7.73606e-06
2.65542e-08
7.73557e-06
1.2866e-08
7.73355e-06
3.69643e-09
7.73014e-06
-2.98867e-09
7.72627e-06
-5.46959e-09
7.72214e-06
-5.78289e-09
7.7184e-06
-3.49677e-09
7.71507e-06
-8.40406e-11
7.71268e-06
4.09997e-09
7.71064e-06
7.53503e-09
7.70936e-06
1.12447e-08
7.70851e-06
1.36246e-08
7.70822e-06
1.579e-08
7.70826e-06
1.72201e-08
7.70858e-06
1.79238e-08
7.70929e-06
1.83278e-08
7.71031e-06
1.83254e-08
7.71159e-06
1.79115e-08
7.71304e-06
1.74268e-08
7.71458e-06
1.6666e-08
7.71614e-06
1.60065e-08
7.71751e-06
1.50761e-08
7.71809e-06
1.43751e-08
1.31917e-08
7.71786e-06
8.35364e-06
-1.32372e-08
8.3693e-06
1.01286e-07
8.36353e-06
-5.40126e-08
8.34656e-06
-1.66532e-07
8.32886e-06
-1.33089e-07
8.33107e-06
-3.20065e-09
8.34214e-06
7.80542e-08
8.35168e-06
7.08367e-08
8.35335e-06
2.679e-08
8.34824e-06
-1.04439e-08
8.34198e-06
-1.69707e-08
8.33811e-06
-3.78979e-09
8.33893e-06
1.78472e-08
8.34217e-06
3.23908e-08
8.34691e-06
3.75522e-08
8.35034e-06
3.33801e-08
8.3525e-06
2.439e-08
8.35192e-06
1.34497e-08
8.35002e-06
5.59271e-09
8.34671e-06
3.22445e-10
8.34308e-06
-1.83564e-09
8.33905e-06
-1.75636e-09
8.33562e-06
-6.75306e-11
8.33245e-06
3.08867e-09
8.33017e-06
6.37671e-09
8.32837e-06
9.33835e-09
8.32722e-06
1.23911e-08
8.32647e-06
1.43756e-08
8.32623e-06
1.60275e-08
8.32631e-06
1.71424e-08
8.32672e-06
1.75122e-08
8.32745e-06
1.75955e-08
8.32838e-06
1.73995e-08
8.32938e-06
1.69098e-08
8.33035e-06
1.64619e-08
8.33127e-06
1.57385e-08
8.3322e-06
1.50813e-08
8.33305e-06
1.42297e-08
8.33402e-06
1.34048e-08
1.23457e-08
8.33486e-06
9.02089e-06
-1.04785e-08
9.0358e-06
8.63772e-08
9.03034e-06
-4.85522e-08
9.01331e-06
-1.49505e-07
8.99684e-06
-1.16616e-07
8.99845e-06
-4.80992e-09
9.00893e-06
6.75718e-08
9.01733e-06
6.24311e-08
9.01909e-06
2.50343e-08
9.01454e-06
-5.89791e-09
9.00905e-06
-1.14737e-08
9.00559e-06
-3.3562e-10
9.00627e-06
1.71658e-08
9.00924e-06
2.94298e-08
9.01319e-06
3.36022e-08
9.01624e-06
3.0325e-08
9.01782e-06
2.28132e-08
9.01731e-06
1.39601e-08
9.0154e-06
7.50411e-09
9.01246e-06
3.2614e-09
9.00905e-06
1.56678e-09
9.00545e-06
1.84525e-09
9.00233e-06
3.05521e-09
8.99953e-06
5.89296e-09
8.99735e-06
8.54965e-09
8.99582e-06
1.08757e-08
8.99478e-06
1.34295e-08
8.99428e-06
1.48721e-08
8.99428e-06
1.60292e-08
8.99469e-06
1.67359e-08
8.99517e-06
1.70322e-08
8.99577e-06
1.69904e-08
8.99632e-06
1.68452e-08
8.99688e-06
1.63503e-08
8.99752e-06
1.58262e-08
8.99817e-06
1.50922e-08
8.99882e-06
1.44308e-08
8.99938e-06
1.367e-08
8.99984e-06
1.29361e-08
1.22223e-08
8.99997e-06
9.74141e-06
-7.78115e-09
9.75554e-06
7.22473e-08
9.75048e-06
-4.35001e-08
9.73339e-06
-1.32411e-07
9.71797e-06
-1.01196e-07
9.71897e-06
-5.80948e-09
9.72889e-06
5.76535e-08
9.73652e-06
5.47937e-08
9.73827e-06
2.32894e-08
9.73425e-06
-1.87948e-09
9.72932e-06
-6.5445e-09
9.72613e-06
2.85842e-09
9.72665e-06
1.66454e-08
9.72932e-06
2.67543e-08
9.73275e-06
3.01713e-08
9.73545e-06
2.76268e-08
9.73672e-06
2.15426e-08
9.73623e-06
1.44507e-08
9.7344e-06
9.34024e-09
9.73164e-06
6.01458e-09
9.72851e-06
4.69798e-09
9.72515e-06
5.2066e-09
9.72224e-06
5.96801e-09
9.71983e-06
8.30283e-09
9.71783e-06
1.05453e-08
9.71656e-06
1.21506e-08
9.7158e-06
1.4186e-08
9.7154e-06
1.5276e-08
9.71531e-06
1.6114e-08
9.71551e-06
1.65429e-08
9.71579e-06
1.67448e-08
9.71619e-06
1.65937e-08
9.71668e-06
1.63525e-08
9.71718e-06
1.58534e-08
9.71771e-06
1.52966e-08
9.71816e-06
1.4641e-08
9.71861e-06
1.39857e-08
9.71895e-06
1.333e-08
9.71925e-06
1.2628e-08
1.19422e-08
9.71953e-06
1.05195e-05
-5.2307e-09
1.05326e-05
5.91993e-08
1.05278e-05
-3.87444e-08
1.0511e-05
-1.15627e-07
1.04969e-05
-8.70964e-08
1.04974e-05
-6.3074e-09
1.05064e-05
4.86535e-08
1.05132e-05
4.80168e-08
1.05147e-05
2.17946e-08
1.05114e-05
1.39321e-09
1.05071e-05
-2.23581e-09
1.05045e-05
5.52669e-09
1.05048e-05
1.63259e-08
1.05071e-05
2.44395e-08
1.05099e-05
2.73389e-08
1.05121e-05
2.54802e-08
1.0513e-05
2.06457e-08
1.05124e-05
1.50381e-08
1.05107e-05
1.10296e-08
1.05082e-05
8.51759e-09
1.05054e-05
7.45982e-09
1.05025e-05
8.13059e-09
1.04999e-05
8.57321e-09
1.04979e-05
1.02928e-08
1.04962e-05
1.2288e-08
1.0495e-05
1.33334e-08
1.04943e-05
1.49089e-08
1.04938e-05
1.57223e-08
1.04936e-05
1.62945e-08
1.04937e-05
1.64452e-08
1.0494e-05
1.6462e-08
1.04943e-05
1.62635e-08
1.04947e-05
1.59516e-08
1.04951e-05
1.54992e-08
1.04955e-05
1.4915e-08
1.04958e-05
1.43066e-08
1.04962e-05
1.36489e-08
1.04965e-05
1.30121e-08
1.04968e-05
1.23085e-08
1.1673e-08
1.04971e-05
1.13598e-05
-2.83241e-09
1.13717e-05
4.73045e-08
1.13673e-05
-3.43673e-08
1.1351e-05
-9.92893e-08
1.13379e-05
-7.40785e-08
1.1338e-05
-6.34278e-09
1.13461e-05
4.05523e-08
1.13522e-05
4.18668e-08
1.13536e-05
2.04586e-08
1.13508e-05
4.10637e-09
1.13471e-05
1.5574e-09
1.13447e-05
7.86644e-09
1.13448e-05
1.62284e-08
1.13468e-05
2.2471e-08
1.13492e-05
2.49442e-08
1.13509e-05
2.37067e-08
1.13516e-05
2.00191e-08
1.1351e-05
1.56201e-08
1.13494e-05
1.25733e-08
1.13472e-05
1.08131e-08
1.13447e-05
9.9581e-09
1.13421e-05
1.06668e-08
1.13397e-05
1.10097e-08
1.13379e-05
1.20517e-08
1.13364e-05
1.37938e-08
1.13353e-05
1.44792e-08
1.13346e-05
1.55632e-08
1.13342e-05
1.61098e-08
1.13341e-05
1.64442e-08
1.13341e-05
1.64316e-08
1.13343e-05
1.62764e-08
1.13345e-05
1.60266e-08
1.13348e-05
1.56276e-08
1.13351e-05
1.51887e-08
1.13355e-05
1.45731e-08
1.13358e-05
1.39895e-08
1.13362e-05
1.33017e-08
1.13365e-05
1.26777e-08
1.13368e-05
1.19755e-08
1.13281e-08
1.13372e-05
1.22672e-05
-6.6486e-10
1.22777e-05
3.67945e-08
1.22736e-05
-3.02886e-08
1.2258e-05
-8.37283e-08
1.22462e-05
-6.22264e-08
1.2246e-05
-6.12417e-09
1.22529e-05
3.35816e-08
1.22583e-05
3.64775e-08
1.22594e-05
1.93783e-08
1.22572e-05
6.28098e-09
1.22541e-05
4.6679e-09
1.22521e-05
9.84031e-09
1.22522e-05
1.62084e-08
1.22537e-05
2.094e-08
1.22556e-05
2.30565e-08
1.22569e-05
2.23944e-08
1.22572e-05
1.96952e-08
1.22565e-05
1.63122e-08
1.22551e-05
1.3976e-08
1.22531e-05
1.27997e-08
1.22509e-05
1.21634e-08
1.22488e-05
1.27831e-08
1.22467e-05
1.31288e-08
1.22452e-05
1.3597e-08
1.2244e-05
1.49964e-08
1.22429e-05
1.55042e-08
1.22424e-05
1.61285e-08
1.2242e-05
1.64896e-08
1.22418e-05
1.66035e-08
1.22418e-05
1.6481e-08
1.22419e-05
1.61514e-08
1.22421e-05
1.58402e-08
1.22423e-05
1.53733e-08
1.22426e-05
1.49274e-08
1.22429e-05
1.42958e-08
1.22432e-05
1.37021e-08
1.22435e-05
1.3002e-08
1.22438e-05
1.23748e-08
1.22441e-05
1.16893e-08
1.1101e-08
1.22443e-05
1.3247e-05
1.25683e-09
1.3256e-05
2.77632e-08
1.32524e-05
-2.66323e-08
1.32378e-05
-6.91165e-08
1.32268e-05
-5.12972e-08
1.32264e-05
-5.65009e-09
1.32323e-05
2.76528e-08
1.32371e-05
3.17101e-08
1.3238e-05
1.84404e-08
1.32362e-05
8.03787e-09
1.32337e-05
7.26346e-09
1.32319e-05
1.1589e-08
1.32318e-05
1.63275e-08
1.32329e-05
1.97926e-08
1.32344e-05
2.15632e-08
1.32354e-05
2.13926e-08
1.32356e-05
1.95499e-08
1.32349e-05
1.70197e-08
1.32336e-05
1.5234e-08
1.32319e-05
1.45406e-08
1.32299e-05
1.41426e-08
1.32281e-05
1.45738e-08
1.32263e-05
1.49636e-08
1.32248e-05
1.50483e-08
1.32238e-05
1.59861e-08
1.32229e-05
1.63979e-08
1.32224e-05
1.66776e-08
1.3222e-05
1.68365e-08
1.32219e-05
1.67509e-08
1.32218e-05
1.65202e-08
1.32219e-05
1.60689e-08
1.32221e-05
1.56779e-08
1.32223e-05
1.51426e-08
1.32226e-05
1.46586e-08
1.32229e-05
1.40154e-08
1.32232e-05
1.34119e-08
1.32234e-05
1.27188e-08
1.32237e-05
1.20901e-08
1.3224e-05
1.1425e-08
1.07841e-08
1.32243e-05
1.43051e-05
2.86494e-09
1.43125e-05
2.0371e-08
1.43092e-05
-2.33564e-08
1.42958e-05
-5.57024e-08
1.42858e-05
-4.13024e-08
1.42852e-05
-5.05705e-09
1.42901e-05
2.27652e-08
1.42941e-05
2.77352e-08
1.42949e-05
1.76886e-08
1.42935e-05
9.43528e-09
1.42914e-05
9.29568e-09
1.429e-05
1.30344e-08
1.42898e-05
1.65396e-08
1.42906e-05
1.89924e-08
1.42916e-05
2.05068e-08
1.42923e-05
2.07637e-08
1.42922e-05
1.96084e-08
1.42914e-05
1.77728e-08
1.42903e-05
1.64207e-08
1.42888e-05
1.59815e-08
1.42871e-05
1.58205e-08
1.42856e-05
1.61057e-08
1.42841e-05
1.64357e-08
1.42829e-05
1.63131e-08
1.42821e-05
1.67865e-08
1.42814e-05
1.7111e-08
1.42809e-05
1.71672e-08
1.42806e-05
1.71227e-08
1.42805e-05
1.68804e-08
1.42804e-05
1.6537e-08
1.42805e-05
1.59983e-08
1.42807e-05
1.55198e-08
1.42809e-05
1.49415e-08
1.42811e-05
1.44117e-08
1.42814e-05
1.37675e-08
1.42816e-05
1.31456e-08
1.42819e-05
1.24614e-08
1.42822e-05
1.18169e-08
1.42824e-05
1.11566e-08
1.05141e-08
1.42827e-05
1.54477e-05
4.1403e-09
1.54534e-05
1.46471e-08
1.54506e-05
-2.05387e-08
1.54386e-05
-4.36535e-08
1.54293e-05
-3.20651e-08
1.54285e-05
-4.25672e-09
1.54325e-05
1.87603e-08
1.54359e-05
2.44276e-08
1.54365e-05
1.70707e-08
1.54354e-05
1.05468e-08
1.54337e-05
1.09177e-08
1.54325e-05
1.43058e-08
1.54321e-05
1.68955e-08
1.54326e-05
1.85043e-08
1.54333e-05
1.97667e-08
1.54337e-05
2.03727e-08
1.54335e-05
1.98063e-08
1.54328e-05
1.8495e-08
1.54318e-05
1.74737e-08
1.54305e-05
1.72144e-08
1.54291e-05
1.72484e-08
1.54278e-05
1.74123e-08
1.54266e-05
1.76263e-08
1.54255e-05
1.74197e-08
1.54248e-05
1.7498e-08
1.54242e-05
1.76453e-08
1.54239e-05
1.75618e-08
1.54236e-05
1.73526e-08
1.54235e-05
1.69715e-08
1.54235e-05
1.65344e-08
1.54236e-05
1.59242e-08
1.54238e-05
1.53598e-08
1.5424e-05
1.47355e-08
1.54242e-05
1.41595e-08
1.54245e-05
1.35097e-08
1.54248e-05
1.28697e-08
1.5425e-05
1.21923e-08
1.54253e-05
1.15375e-08
1.54256e-05
1.0888e-08
1.02446e-08
1.54258e-05
1.66816e-05
5.03016e-09
1.66857e-05
1.05252e-08
1.66832e-05
-1.80303e-08
1.66726e-05
-3.31006e-08
1.66642e-05
-2.36169e-08
1.66632e-05
-3.27743e-09
1.66664e-05
1.55139e-08
1.6669e-05
2.18467e-08
1.66694e-05
1.66915e-08
1.66685e-05
1.14321e-08
1.66673e-05
1.21323e-08
1.66663e-05
1.53531e-08
1.66658e-05
1.73558e-08
1.6666e-05
1.83007e-08
1.66664e-05
1.93222e-08
1.66666e-05
2.02295e-08
1.66662e-05
2.01544e-08
1.66655e-05
1.92208e-08
1.66646e-05
1.8428e-08
1.66635e-05
1.82453e-08
1.66624e-05
1.83611e-08
1.66613e-05
1.85083e-08
1.66604e-05
1.85786e-08
1.66595e-05
1.82771e-08
1.66589e-05
1.80684e-08
1.66586e-05
1.80126e-08
1.66583e-05
1.78343e-08
1.66581e-05
1.75188e-08
1.66581e-05
1.70238e-08
1.66581e-05
1.64783e-08
1.66582e-05
1.58165e-08
1.66584e-05
1.51913e-08
1.66586e-05
1.4532e-08
1.66589e-05
1.39103e-08
1.66591e-05
1.32554e-08
1.66594e-05
1.25994e-08
1.66597e-05
1.19285e-08
1.66599e-05
1.12665e-08
1.66602e-05
1.06246e-08
9.98166e-09
1.66605e-05
1.80139e-05
5.5235e-09
1.80166e-05
7.84531e-09
1.80143e-05
-1.57711e-08
1.80054e-05
-2.41261e-08
1.79976e-05
-1.58843e-08
1.79963e-05
-1.98846e-09
1.7999e-05
1.28854e-08
1.8001e-05
1.98038e-08
1.80011e-05
1.65585e-08
1.80004e-05
1.21932e-08
1.79995e-05
1.3032e-08
1.79986e-05
1.62598e-08
1.7998e-05
1.79619e-08
1.79979e-05
1.83702e-08
1.79981e-05
1.90867e-08
1.79982e-05
2.01914e-08
1.79978e-05
2.05646e-08
1.7997e-05
1.99454e-08
1.79962e-05
1.92578e-08
1.79954e-05
1.90787e-08
1.79945e-05
1.92425e-08
1.79936e-05
1.93759e-08
1.79929e-05
1.93348e-08
1.79922e-05
1.89452e-08
1.79917e-05
1.85286e-08
1.79915e-05
1.82616e-08
1.79913e-05
1.79714e-08
1.79913e-05
1.7582e-08
1.79913e-05
1.7015e-08
1.79914e-05
1.63939e-08
1.79915e-05
1.56794e-08
1.79917e-05
1.4996e-08
1.79919e-05
1.431e-08
1.79922e-05
1.36473e-08
1.79925e-05
1.29832e-08
1.79928e-05
1.23135e-08
1.7993e-05
1.16503e-08
1.79933e-05
1.09861e-08
1.79936e-05
1.03506e-08
9.71137e-09
1.79939e-05
1.94526e-05
5.6001e-09
1.94541e-05
6.4004e-09
1.94519e-05
-1.35881e-08
1.94445e-05
-1.67349e-08
1.94376e-05
-8.95994e-09
1.94359e-05
-3.66711e-10
1.9438e-05
1.07921e-08
1.94396e-05
1.82109e-08
1.94394e-05
1.67562e-08
1.94386e-05
1.29648e-08
1.9438e-05
1.36439e-08
1.94373e-05
1.69495e-08
1.94366e-05
1.86616e-08
1.94363e-05
1.8712e-08
1.94363e-05
1.90651e-08
1.94363e-05
2.02143e-08
1.94359e-05
2.09875e-08
1.94352e-05
2.06754e-08
1.94344e-05
2.0019e-08
1.94337e-05
1.9756e-08
1.94331e-05
1.98497e-08
1.94325e-05
1.9982e-08
1.94319e-05
1.98988e-08
1.94314e-05
1.94365e-08
1.94311e-05
1.885e-08
1.9431e-05
1.83792e-08
1.9431e-05
1.7972e-08
1.94311e-05
1.75271e-08
1.94311e-05
1.69274e-08
1.94313e-05
1.62598e-08
1.94314e-05
1.55155e-08
1.94317e-05
1.47727e-08
1.94319e-05
1.40574e-08
1.94322e-05
1.33706e-08
1.94325e-05
1.26992e-08
1.94328e-05
1.20214e-08
1.94331e-05
1.13601e-08
1.94334e-05
1.07006e-08
1.94336e-05
1.00699e-08
9.43872e-09
1.94339e-05
2.10061e-05
5.28891e-09
2.10066e-05
5.94107e-09
2.10044e-05
-1.1392e-08
2.09985e-05
-1.08961e-08
2.09925e-05
-2.89556e-09
2.09904e-05
1.68742e-09
2.0992e-05
9.24286e-09
2.09933e-05
1.68532e-08
2.09929e-05
1.71849e-08
2.0992e-05
1.38961e-08
2.09915e-05
1.41222e-08
2.0991e-05
1.74233e-08
2.09903e-05
1.93894e-08
2.09897e-05
1.93079e-08
2.09895e-05
1.92805e-08
2.09895e-05
2.02173e-08
2.09892e-05
2.12897e-08
2.09885e-05
2.13467e-08
2.09878e-05
2.07086e-08
2.09873e-05
2.03124e-08
2.09868e-05
2.02604e-08
2.09865e-05
2.03343e-08
2.09862e-05
2.02294e-08
2.09858e-05
1.97725e-08
2.09856e-05
1.90659e-08
2.09856e-05
1.84179e-08
2.09857e-05
1.78611e-08
2.09859e-05
1.73516e-08
2.0986e-05
1.67417e-08
2.09863e-05
1.605e-08
2.09865e-05
1.53001e-08
2.09867e-05
1.45303e-08
2.0987e-05
1.37831e-08
2.09873e-05
1.30661e-08
2.09876e-05
1.23881e-08
2.09879e-05
1.17056e-08
2.09882e-05
1.10482e-08
2.09885e-05
1.0398e-08
2.09888e-05
9.77477e-09
9.1548e-09
2.09891e-05
2.26836e-05
4.63865e-09
2.26833e-05
6.19429e-09
2.2681e-05
-9.02883e-09
2.26765e-05
-6.48344e-09
2.26715e-05
2.10061e-09
2.26691e-05
4.14197e-09
2.267e-05
8.37352e-09
2.26712e-05
1.56421e-08
2.26707e-05
1.76897e-08
2.26695e-05
1.50818e-08
2.26689e-05
1.46634e-08
2.26687e-05
1.76429e-08
2.26681e-05
1.99776e-08
2.26674e-05
2.00823e-08
2.26669e-05
1.9746e-08
2.26668e-05
2.02916e-08
2.26667e-05
2.1417e-08
2.26662e-05
2.18309e-08
2.26656e-05
2.13396e-08
2.26651e-05
2.07697e-08
2.26649e-05
2.05285e-08
2.26647e-05
2.04483e-08
2.26646e-05
2.03203e-08
2.26645e-05
1.98853e-08
2.26644e-05
1.91683e-08
2.26645e-05
1.83764e-08
2.26647e-05
1.76775e-08
2.26649e-05
1.70715e-08
2.26652e-05
1.64515e-08
2.26655e-05
1.57643e-08
2.26658e-05
1.50138e-08
2.26661e-05
1.42419e-08
2.26664e-05
1.34827e-08
2.26667e-05
1.27449e-08
2.26671e-05
1.20478e-08
2.26674e-05
1.13694e-08
2.26677e-05
1.0717e-08
2.2668e-05
1.00782e-08
2.26683e-05
9.46473e-09
8.8582e-09
2.26686e-05
2.44948e-05
3.77245e-09
2.44942e-05
6.83893e-09
2.44915e-05
-6.39839e-09
2.44884e-05
-3.32018e-09
2.44846e-05
5.85496e-09
2.44818e-05
6.95436e-09
2.44818e-05
8.37956e-09
2.44829e-05
1.45128e-08
2.44826e-05
1.79974e-08
2.44812e-05
1.64857e-08
2.44804e-05
1.54867e-08
2.44803e-05
1.77252e-08
2.448e-05
2.03371e-08
2.44792e-05
2.08493e-08
2.44785e-05
2.03963e-08
2.44783e-05
2.05225e-08
2.44784e-05
2.13689e-08
2.44782e-05
2.2029e-08
2.44777e-05
2.17844e-08
2.44773e-05
2.11492e-08
2.44772e-05
2.0676e-08
2.44772e-05
2.04202e-08
2.44773e-05
2.01832e-08
2.44775e-05
1.9779e-08
2.44775e-05
1.90916e-08
2.44776e-05
1.82685e-08
2.44779e-05
1.74488e-08
2.44782e-05
1.67349e-08
2.44786e-05
1.60739e-08
2.4479e-05
1.53898e-08
2.44793e-05
1.46558e-08
2.44797e-05
1.38901e-08
2.448e-05
1.3133e-08
2.44804e-05
1.2394e-08
2.44807e-05
1.1688e-08
2.44811e-05
1.1011e-08
2.44814e-05
1.03634e-08
2.44818e-05
9.73772e-09
2.44821e-05
9.13678e-09
8.54471e-09
2.44824e-05
2.64505e-05
2.86485e-09
2.64498e-05
7.51555e-09
2.64469e-05
-3.46561e-09
2.64446e-05
-1.0394e-09
2.64421e-05
8.29494e-09
2.64393e-05
9.81804e-09
2.64384e-05
9.30454e-09
2.64392e-05
1.36589e-08
2.64392e-05
1.80115e-08
2.64378e-05
1.78533e-08
2.64367e-05
1.66229e-08
2.64365e-05
1.79076e-08
2.64364e-05
2.0408e-08
2.64359e-05
2.1417e-08
2.64352e-05
2.10945e-08
2.64348e-05
2.08871e-08
2.64348e-05
2.13271e-08
2.6435e-05
2.19234e-08
2.64348e-05
2.19419e-08
2.64346e-05
2.13671e-08
2.64345e-05
2.07366e-08
2.64347e-05
2.02625e-08
2.6435e-05
1.98942e-08
2.64353e-05
1.94503e-08
2.64356e-05
1.88108e-08
2.64358e-05
1.80173e-08
2.64361e-05
1.71764e-08
2.64365e-05
1.6371e-08
2.64369e-05
1.56452e-08
2.64373e-05
1.49434e-08
2.64378e-05
1.42176e-08
2.64382e-05
1.34745e-08
2.64386e-05
1.27316e-08
2.6439e-05
1.20034e-08
2.64394e-05
1.13018e-08
2.64397e-05
1.06302e-08
2.64401e-05
9.98882e-09
2.64405e-05
9.375e-09
2.64408e-05
8.78828e-09
8.21608e-09
2.64412e-05
2.85621e-05
2.11332e-09
2.85617e-05
7.91253e-09
2.85586e-05
-3.90456e-10
2.85567e-05
8.37122e-10
2.85554e-05
9.62284e-09
2.85529e-05
1.2315e-08
2.85512e-05
1.09582e-08
2.85516e-05
1.33498e-08
2.85518e-05
1.77547e-08
2.85508e-05
1.8887e-08
2.85495e-05
1.79354e-08
2.8549e-05
1.83748e-08
2.85491e-05
2.03303e-08
2.85488e-05
2.1659e-08
2.85483e-05
2.16286e-08
2.85479e-05
2.12937e-08
2.85479e-05
2.13247e-08
2.85482e-05
2.16572e-08
2.85483e-05
2.17561e-08
2.85484e-05
2.13353e-08
2.85485e-05
2.06532e-08
2.85487e-05
2.00323e-08
2.85491e-05
1.94968e-08
2.85496e-05
1.8965e-08
2.855e-05
1.83438e-08
2.85505e-05
1.76026e-08
2.85508e-05
1.67841e-08
2.85513e-05
1.59603e-08
2.85517e-05
1.5185e-08
2.85522e-05
1.4446e-08
2.85527e-05
1.37226e-08
2.85532e-05
1.29995e-08
2.85536e-05
1.22779e-08
2.85541e-05
1.15692e-08
2.85545e-05
1.08827e-08
2.85549e-05
1.02261e-08
2.85553e-05
9.59922e-09
2.85557e-05
9.00234e-09
2.8556e-05
8.43319e-09
7.86712e-09
2.85564e-05
3.08421e-05
1.64183e-09
3.08422e-05
7.90298e-09
3.08392e-05
2.5433e-09
3.08373e-05
2.72407e-09
3.08367e-05
1.02194e-08
3.0835e-05
1.40872e-08
3.0833e-05
1.29224e-08
3.08326e-05
1.375e-08
3.08329e-05
1.74658e-08
3.08323e-05
1.94434e-08
3.08312e-05
1.91069e-08
3.08304e-05
1.90918e-08
3.08305e-05
2.03124e-08
3.08305e-05
2.15792e-08
3.08303e-05
2.18837e-08
3.083e-05
2.1575e-08
3.083e-05
2.1339e-08
3.08303e-05
2.13317e-08
3.08308e-05
2.13124e-08
3.08311e-05
2.09848e-08
3.08314e-05
2.03681e-08
3.08318e-05
1.9669e-08
3.08323e-05
1.90076e-08
3.08328e-05
1.83827e-08
3.08334e-05
1.77341e-08
3.0834e-05
1.7018e-08
3.08346e-05
1.62411e-08
3.08351e-05
1.54422e-08
3.08356e-05
1.46588e-08
3.08362e-05
1.39033e-08
3.08367e-05
1.31746e-08
3.08372e-05
1.24621e-08
3.08378e-05
1.17623e-08
3.08383e-05
1.10782e-08
3.08387e-05
1.04151e-08
3.08392e-05
9.77909e-09
3.08396e-05
9.17216e-09
3.084e-05
8.60077e-09
3.08404e-05
8.05819e-09
7.51919e-09
3.08407e-05
3.33043e-05
1.46056e-09
3.33046e-05
7.59217e-09
3.33021e-05
4.99243e-09
3.33001e-05
4.81187e-09
3.32998e-05
1.05059e-08
3.32988e-05
1.51008e-08
3.3297e-05
1.46902e-08
3.3296e-05
1.47668e-08
3.32961e-05
1.73872e-08
3.32959e-05
1.95577e-08
3.32951e-05
1.99264e-08
3.32944e-05
1.98385e-08
3.32943e-05
2.042e-08
3.32945e-05
2.13537e-08
3.32946e-05
2.17922e-08
3.32945e-05
2.16155e-08
3.32946e-05
2.12584e-08
3.32949e-05
2.10035e-08
3.32955e-05
2.07857e-08
3.3296e-05
2.04217e-08
3.32966e-05
1.98391e-08
3.32971e-05
1.91326e-08
3.32977e-05
1.84075e-08
3.32984e-05
1.77067e-08
3.32991e-05
1.70128e-08
3.32998e-05
1.6299e-08
3.33005e-05
1.55539e-08
3.33012e-05
1.47926e-08
3.33018e-05
1.40325e-08
3.33024e-05
1.32896e-08
3.3303e-05
1.25679e-08
3.33036e-05
1.18483e-08
3.33042e-05
1.11687e-08
3.33048e-05
1.05135e-08
3.33053e-05
9.88239e-09
3.33058e-05
9.27755e-09
3.33063e-05
8.70009e-09
3.33067e-05
8.15114e-09
3.33072e-05
7.62975e-09
7.12762e-09
3.33076e-05
3.59631e-05
1.49483e-09
3.59635e-05
7.16866e-09
3.59617e-05
6.81989e-09
3.59596e-05
6.92625e-09
3.59592e-05
1.08671e-08
3.59588e-05
1.55066e-08
3.59575e-05
1.59731e-08
3.59563e-05
1.6013e-08
3.59561e-05
1.75955e-08
3.59561e-05
1.94943e-08
3.59557e-05
2.03313e-08
3.59552e-05
2.03735e-08
3.5955e-05
2.05764e-08
3.59553e-05
2.10971e-08
3.59557e-05
2.1433e-08
3.5956e-05
2.13122e-08
3.59563e-05
2.09243e-08
3.59568e-05
2.05119e-08
3.59575e-05
2.01071e-08
3.59582e-05
1.96385e-08
3.5959e-05
1.90445e-08
3.59598e-05
1.83523e-08
3.59606e-05
1.76167e-08
3.59614e-05
1.6884e-08
3.59623e-05
1.61632e-08
3.59631e-05
1.54488e-08
3.5964e-05
1.47292e-08
3.59647e-05
1.40077e-08
3.59655e-05
1.32925e-08
3.59662e-05
1.26219e-08
3.59668e-05
1.19429e-08
3.59673e-05
1.12814e-08
3.59679e-05
1.064e-08
3.59684e-05
1.00203e-08
3.59688e-05
9.42286e-09
3.59693e-05
8.84929e-09
3.59697e-05
8.30059e-09
3.597e-05
7.77753e-09
3.59704e-05
7.27986e-09
6.81494e-09
3.59707e-05
3.88343e-05
1.62632e-09
3.88346e-05
6.85241e-09
3.88335e-05
7.96812e-09
3.88315e-05
8.88785e-09
3.88311e-05
1.12769e-08
3.88308e-05
1.585e-08
3.88303e-05
1.64115e-08
3.8829e-05
1.73998e-08
3.88289e-05
1.76954e-08
3.88287e-05
1.96605e-08
3.88288e-05
2.01716e-08
3.88285e-05
2.07458e-08
3.88285e-05
2.05247e-08
3.88286e-05