/*--------------------------------*- C++ -*----------------------------------*\
| =========                 |                                                 |
| \\      /  F ield         | OpenFOAM: The Open Source CFD Toolbox           |
|  \\    /   O peration     | Version:  2312                                  |
|   \\  /    A nd           | Website:  www.openfoam.com                      |
|    \\/     M anipulation  |                                                 |
\*---------------------------------------------------------------------------*/
FoamFile
{
    version     2.0;
    format      ascii;
    arch        "LSB;label=32;scalar=64";
    class       volVectorField;
    location    "0.15";
    object      U;
}
// * * * * * * * * * * * * * * * * * * * * * * * * * * * * * * * * * * * * * //

dimensions      [0 1 -1 0 0 0 0];

internalField   nonuniform List<vector> 
5600
(
(0.972374 -0.000548605 0)
(1.02606 0.00347261 0)
(0.973281 -0.00153552 0)
(1.02468 -0.00503021 0)
(0.97902 -0.00518989 0)
(1.02598 0.000786302 0)
(0.981687 0.00371075 0)
(1.0219 0.00414393 0)
(0.983138 0.00052872 0)
(1.01947 -0.00162209 0)
(0.984771 -0.00287122 0)
(1.01729 -0.00115192 0)
(0.986163 0.000558206 0)
(1.01481 0.00271059 0)
(0.98719 0.0032723 0)
(1.01248 0.00338865 0)
(0.988041 0.00201158 0)
(1.0106 0.000665764 0)
(0.989617 -0.00104253 0)
(1.009 -0.00194684 0)
(0.990092 -0.00281259 0)
(1.00724 -0.00295168 0)
(0.990903 -0.00292912 0)
(1.00603 -0.00221519 0)
(0.991349 -0.00165268 0)
(1.00461 -0.000758578 0)
(0.991643 -0.000112967 0)
(1.00329 0.000733556 0)
(0.991867 0.00132151 0)
(1.00219 0.00200771 0)
(0.992133 0.0022971 0)
(1.00091 0.00270298 0)
(0.992149 0.00285108 0)
(0.999862 0.00304572 0)
(0.99219 0.00308737 0)
(0.998854 0.00321562 0)
(0.992136 0.00321184 0)
(0.997963 0.00333777 0)
(0.992129 0.00342237 0)
(0.99748 0.00366844 0)
(0.987168 -0.000533202 0)
(1.0107 0.00354882 0)
(0.991342 -0.00159644 0)
(1.00862 -0.00522415 0)
(0.990752 -0.00537664 0)
(1.0074 0.000742652 0)
(0.994203 0.00382822 0)
(1.00767 0.00417895 0)
(0.997661 0.000593951 0)
(1.00626 -0.00162185 0)
(0.996777 -0.00281623 0)
(1.00336 -0.00114135 0)
(0.996518 0.00068613 0)
(1.00242 0.00276309 0)
(0.997929 0.00336277 0)
(1.00264 0.00344648 0)
(0.999193 0.00211123 0)
(1.00246 0.000610755 0)
(0.999898 -0.000960843 0)
(1.00133 -0.00185496 0)
(0.998611 -0.00269444 0)
(0.999539 -0.00290394 0)
(0.997672 -0.00288035 0)
(0.998497 -0.00211092 0)
(0.99684 -0.00149953 0)
(0.997537 -0.000652027 0)
(0.996297 6.19649e-05 0)
(0.996881 0.000869692 0)
(0.996025 0.00149816 0)
(0.996665 0.00220668 0)
(0.996053 0.00251256 0)
(0.996309 0.00295912 0)
(0.995941 0.0031525 0)
(0.996164 0.00338338 0)
(0.995898 0.00349656 0)
(0.995978 0.00367457 0)
(0.995829 0.0037733 0)
(0.995921 0.00397019 0)
(0.995993 0.00418041 0)
(0.996343 0.00450201 0)
(0.995912 -0.000454165 0)
(1.00288 0.00327421 0)
(1.00104 -0.00143657 0)
(1.00167 -0.00499781 0)
(0.994914 -0.00509057 0)
(0.99724 0.000533354 0)
(0.997229 0.00364534 0)
(1.00182 0.00384776 0)
(1.00158 0.000689196 0)
(1.00168 -0.00152167 0)
(0.998694 -0.00252432 0)
(0.998015 -0.00113606 0)
(0.997147 0.000712774 0)
(0.998424 0.00252296 0)
(0.999097 0.00321142 0)
(1.00054 0.00316597 0)
(1.00115 0.00205661 0)
(1.00159 0.000542302 0)
(1.00116 -0.000771894 0)
(1.00052 -0.00166492 0)
(0.999286 -0.00236815 0)
(0.998312 -0.00265678 0)
(0.997369 -0.00259166 0)
(0.996623 -0.00193574 0)
(0.996111 -0.00130456 0)
(0.995681 -0.000615766 0)
(0.995346 0.000146573 0)
(0.995236 0.0008277 0)
(0.995077 0.00152053 0)
(0.995358 0.00213776 0)
(0.995388 0.00250822 0)
(0.995417 0.00291304 0)
(0.99556 0.00313433 0)
(0.99565 0.00331496 0)
(0.995762 0.00343248 0)
(0.995784 0.00356294 0)
(0.995902 0.00367328 0)
(0.996007 0.00380442 0)
(0.996246 0.00394463 0)
(0.996629 0.00409665 0)
(0.998243 -0.000441732 0)
(1.00115 0.0031533 0)
(1.00342 -0.00142722 0)
(1.00062 -0.00483148 0)
(0.995618 -0.00492689 0)
(0.99457 0.000457992 0)
(0.996782 0.00344834 0)
(1.00015 0.00366307 0)
(1.00155 0.000717813 0)
(1.00067 -0.0013697 0)
(0.998431 -0.00229076 0)
(0.996786 -0.00102563 0)
(0.996473 0.000716323 0)
(0.997358 0.00238507 0)
(0.998582 0.00303621 0)
(0.999884 0.00298479 0)
(1.00096 0.00198438 0)
(1.00128 0.000570229 0)
(1.00089 -0.000653227 0)
(1.00024 -0.00147837 0)
(0.99916 -0.00208738 0)
(0.998089 -0.00236056 0)
(0.997101 -0.00230786 0)
(0.996149 -0.00173755 0)
(0.995705 -0.00111878 0)
(0.995167 -0.000452361 0)
(0.99481 0.000276996 0)
(0.994737 0.000917814 0)
(0.994587 0.0015558 0)
(0.994931 0.00213523 0)
(0.995015 0.00250856 0)
(0.995081 0.00289709 0)
(0.995274 0.00312598 0)
(0.995378 0.00331561 0)
(0.995548 0.00344667 0)
(0.995603 0.00359465 0)
(0.995768 0.00373032 0)
(0.995935 0.00387486 0)
(0.996254 0.0040385 0)
(0.996713 0.0042071 0)
(0.998653 -0.000389392 0)
(1.00089 0.00285074 0)
(1.00363 -0.00130727 0)
(1.00057 -0.00447826 0)
(0.995862 -0.00448124 0)
(0.994277 0.000335247 0)
(0.996484 0.00314085 0)
(0.999625 0.00326733 0)
(1.0012 0.000740963 0)
(1.00038 -0.00120197 0)
(0.998326 -0.0019441 0)
(0.996678 -0.000922643 0)
(0.996374 0.000691639 0)
(0.99717 0.00212991 0)
(0.998348 0.00274411 0)
(0.999569 0.00265441 0)
(1.00064 0.00180744 0)
(1.001 0.000561351 0)
(1.00063 -0.000491964 0)
(1 -0.00123677 0)
(0.999028 -0.00175942 0)
(0.998053 -0.00198134 0)
(0.997148 -0.00191793 0)
(0.9962 -0.00142739 0)
(0.995711 -0.000884323 0)
(0.995203 -0.000305268 0)
(0.994846 0.000381742 0)
(0.994781 0.000941321 0)
(0.994658 0.00155319 0)
(0.994949 0.00206547 0)
(0.995035 0.00242537 0)
(0.995099 0.00279448 0)
(0.995259 0.0030043 0)
(0.995371 0.00321665 0)
(0.995551 0.00335462 0)
(0.995619 0.00350926 0)
(0.995792 0.00364246 0)
(0.995978 0.00377183 0)
(0.996308 0.00389882 0)
(0.996782 0.00400959 0)
(0.998782 -0.000373704 0)
(1.00082 0.002689 0)
(1.00337 -0.00128455 0)
(1.00048 -0.00426731 0)
(0.996135 -0.00421991 0)
(0.994597 0.000281522 0)
(0.996551 0.00293106 0)
(0.999398 0.00302755 0)
(1.00088 0.000748269 0)
(1.00019 -0.0010674 0)
(0.99835 -0.00169453 0)
(0.996869 -0.000798277 0)
(0.996589 0.000702464 0)
(0.997297 0.00198164 0)
(0.998338 0.00255297 0)
(0.999405 0.00245524 0)
(1.00034 0.00170186 0)
(1.00068 0.000576403 0)
(1.00037 -0.000372075 0)
(0.999782 -0.00106006 0)
(0.998903 -0.0015087 0)
(0.998049 -0.0016887 0)
(0.997258 -0.00161405 0)
(0.996402 -0.00118654 0)
(0.995959 -0.000665152 0)
(0.995477 -0.000121044 0)
(0.995117 0.000514044 0)
(0.995065 0.00104111 0)
(0.994948 0.0015969 0)
(0.995199 0.00206749 0)
(0.995265 0.0024191 0)
(0.995286 0.00276216 0)
(0.995417 0.00298407 0)
(0.995508 0.00320343 0)
(0.995662 0.00334665 0)
(0.995727 0.00349514 0)
(0.99588 0.00361724 0)
(0.99606 0.00372052 0)
(0.996377 0.00382058 0)
(0.996858 0.00389791 0)
(0.998868 -0.000325058 0)
(1.00077 0.00239748 0)
(1.00311 -0.00117466 0)
(1.00038 -0.00391453 0)
(0.996369 -0.00378452 0)
(0.994952 0.000188201 0)
(0.996694 0.00263094 0)
(0.999281 0.00265728 0)
(1.00065 0.000747449 0)
(1.00006 -0.000894689 0)
(0.998385 -0.00139129 0)
(0.997058 -0.000663673 0)
(0.996818 0.000667179 0)
(0.997454 0.00176377 0)
(0.998374 0.00227012 0)
(0.999308 0.00216834 0)
(1.00013 0.00152907 0)
(1.00044 0.000577091 0)
(1.00016 -0.000224347 0)
(0.999622 -0.000816966 0)
(0.998812 -0.00119899 0)
(0.998036 -0.0013319 0)
(0.997357 -0.00125041 0)
(0.996597 -0.000872915 0)
(0.99616 -0.000408528 0)
(0.995733 5.09092e-05 0)
(0.995406 0.000640979 0)
(0.995345 0.00110068 0)
(0.995247 0.00160416 0)
(0.995444 0.00203891 0)
(0.99549 0.00234735 0)
(0.995499 0.00268943 0)
(0.995593 0.00290007 0)
(0.995668 0.00311272 0)
(0.995809 0.00325552 0)
(0.995872 0.00339722 0)
(0.996012 0.00351538 0)
(0.996191 0.00360733 0)
(0.996504 0.00369674 0)
(0.996991 0.00375322 0)
(0.998966 -0.000301946 0)
(1.00072 0.00221635 0)
(1.0028 -0.00112424 0)
(1.00026 -0.00370011 0)
(0.996637 -0.00350495 0)
(0.995378 0.000130872 0)
(0.996883 0.0024339 0)
(0.999165 0.0024207 0)
(1.0004 0.000746798 0)
(0.9999 -0.000767619 0)
(0.998432 -0.00117768 0)
(0.997281 -0.000542248 0)
(0.997089 0.000664094 0)
(0.997646 0.00162955 0)
(0.998429 0.00209737 0)
(0.999212 0.00198922 0)
(0.999898 0.00143775 0)
(1.00017 0.000589674 0)
(0.999928 -0.000110865 0)
(0.999446 -0.000645145 0)
(0.998714 -0.000967059 0)
(0.99804 -0.00106868 0)
(0.997469 -0.000965577 0)
(0.9968 -0.000645419 0)
(0.996425 -0.0001975 0)
(0.996048 0.000234528 0)
(0.995725 0.000764293 0)
(0.995671 0.00119756 0)
(0.995585 0.0016627 0)
(0.99574 0.00206053 0)
(0.995781 0.00236714 0)
(0.995756 0.0026955 0)
(0.995807 0.00291411 0)
(0.995861 0.00312411 0)
(0.995967 0.00326852 0)
(0.996024 0.00339089 0)
(0.996136 0.00348729 0)
(0.996296 0.00353613 0)
(0.996577 0.00357852 0)
(0.997036 0.0035821 0)
(0.99905 -0.000256721 0)
(1.00067 0.00194235 0)
(1.00253 -0.00101931 0)
(1.00016 -0.00335891 0)
(0.996868 -0.00310026 0)
(0.995739 5.74809e-05 0)
(0.997045 0.00214654 0)
(0.999081 0.00210261 0)
(1.00021 0.000722472 0)
(0.999785 -0.000599373 0)
(0.998475 -0.00091988 0)
(0.99746 -0.000406722 0)
(0.997305 0.000639635 0)
(0.997799 0.00142778 0)
(0.998472 0.00186479 0)
(0.999137 0.00173184 0)
(0.999727 0.0013094 0)
(0.99997 0.000579239 0)
(0.999759 3.7125e-05 0)
(0.999317 -0.000434593 0)
(0.998655 -0.000663123 0)
(0.998047 -0.000756282 0)
(0.997559 -0.000626643 0)
(0.996987 -0.000366078 0)
(0.996634 5.01134e-05 0)
(0.996293 0.00040038 0)
(0.996008 0.000889408 0)
(0.995954 0.00126738 0)
(0.995876 0.00168593 0)
(0.995998 0.00204694 0)
(0.996031 0.00234062 0)
(0.996 0.00264589 0)
(0.99602 0.00290346 0)
(0.996046 0.00311832 0)
(0.996117 0.00331465 0)
(0.996144 0.00345514 0)
(0.996203 0.00359844 0)
(0.99632 0.00365165 0)
(0.996571 0.00366869 0)
(0.997068 0.00349904 0)
(0.999147 -0.000227716 0)
(1.00061 0.00175113 0)
(1.00223 -0.000947466 0)
(1.00005 -0.0031397 0)
(0.997131 -0.00282119 0)
(0.996141 5.01548e-06 0)
(0.997239 0.00195334 0)
(0.998987 0.0018987 0)
(0.999996 0.000701283 0)
(0.99965 -0.000475616 0)
(0.998525 -0.000744495 0)
(0.997657 -0.000294914 0)
(0.99755 0.000626591 0)
(0.997974 0.00131454 0)
(0.998528 0.00170883 0)
(0.999057 0.00158678 0)
(0.999542 0.00123322 0)
(0.999739 0.000599941 0)
(0.999561 0.000139147 0)
(0.999172 -0.000268025 0)
(0.998583 -0.000446869 0)
(0.998064 -0.000519041 0)
(0.997676 -0.000373593 0)
(0.997172 -0.000138002 0)
(0.996879 0.00023294 0)
(0.996586 0.000575754 0)
(0.99632 0.00101184 0)
(0.996263 0.00135262 0)
(0.996209 0.0017388 0)
(0.996303 0.0020677 0)
(0.996342 0.00234764 0)
(0.996322 0.00262422 0)
(0.996322 0.0028675 0)
(0.996345 0.00305679 0)
(0.996396 0.00323909 0)
(0.996416 0.0033631 0)
(0.996426 0.00350592 0)
(0.996406 0.00356031 0)
(0.996293 0.00358379 0)
(0.995934 0.00341814 0)
(0.999228 -0.000185964 0)
(1.00057 0.00150031 0)
(1.00198 -0.000849112 0)
(0.999962 -0.00281397 0)
(0.997358 -0.00245848 0)
(0.996484 -4.38023e-05 0)
(0.997402 0.00168503 0)
(0.998923 0.00164433 0)
(0.999841 0.000653908 0)
(0.99956 -0.000319973 0)
(0.998573 -0.00054124 0)
(0.997818 -0.000160024 0)
(0.99774 0.000585255 0)
(0.998109 0.00117773 0)
(0.998569 0.00148242 0)
(0.998999 0.00141423 0)
(0.999405 0.00110404 0)
(0.999583 0.000625525 0)
(0.99943 0.000244562 0)
(0.999076 -5.72041e-05 0)
(0.99855 -0.000201429 0)
(0.998092 -0.000218693 0)
(0.997772 -0.000105526 0)
(0.997345 0.000135508 0)
(0.997086 0.000439562 0)
(0.996824 0.000754064 0)
(0.996577 0.00112345 0)
(0.99653 0.0014382 0)
(0.996487 0.00175956 0)
(0.996556 0.00205346 0)
(0.996586 0.00229251 0)
(0.996555 0.0025081 0)
(0.996518 0.00268537 0)
(0.996507 0.00281443 0)
(0.996526 0.00293504 0)
(0.996529 0.00301708 0)
(0.996506 0.00311088 0)
(0.996448 0.00315573 0)
(0.996305 0.00320208 0)
(0.99598 0.00320793 0)
(0.999314 -0.000153501 0)
(1.00052 0.00130998 0)
(1.0017 -0.000769614 0)
(0.999866 -0.00258146 0)
(0.997597 -0.00219694 0)
(0.996858 -7.98934e-05 0)
(0.99759 0.0014969 0)
(0.998861 0.00147629 0)
(0.999672 0.000621773 0)
(0.999459 -0.000212008 0)
(0.998622 -0.00039655 0)
(0.99799 -6.36427e-05 0)
(0.997951 0.000567955 0)
(0.998266 0.0010879 0)
(0.998623 0.00134857 0)
(0.998942 0.00130626 0)
(0.999263 0.00104319 0)
(0.999409 0.000656655 0)
(0.999276 0.000334247 0)
(0.998974 9.90897e-05 0)
(0.998509 -9.90564e-06 0)
(0.998123 -1.46049e-06 0)
(0.997892 0.000103977 0)
(0.997522 0.000340823 0)
(0.997305 0.000603668 0)
(0.997096 0.000889654 0)
(0.996866 0.00123125 0)
(0.996812 0.00150798 0)
(0.996781 0.00178064 0)
(0.996837 0.00203687 0)
(0.996834 0.00224614 0)
(0.99678 0.0024249 0)
(0.996707 0.00258171 0)
(0.996686 0.00270219 0)
(0.996694 0.00282671 0)
(0.996698 0.0029183 0)
(0.996664 0.0030231 0)
(0.996578 0.00309108 0)
(0.996397 0.00315831 0)
(0.996021 0.00319024 0)
(0.999389 -0.000115851 0)
(1.00048 0.00108976 0)
(1.00147 -0.000688829 0)
(0.999798 -0.00226717 0)
(0.997813 -0.00188574 0)
(0.997177 -0.000102422 0)
(0.997753 0.0012603 0)
(0.998822 0.00127628 0)
(0.999554 0.000570176 0)
(0.999399 -8.86394e-05 0)
(0.998675 -0.000235929 0)
(0.998131 4.78497e-05 0)
(0.998114 0.000545734 0)
(0.998384 0.000971065 0)
(0.998665 0.00118835 0)
(0.998904 0.00116544 0)
(0.999163 0.000965787 0)
(0.999297 0.000672405 0)
(0.999187 0.000440292 0)
(0.998917 0.000268422 0)
(0.998508 0.000205016 0)
(0.998168 0.000249074 0)
(0.997996 0.000330029 0)
(0.99769 0.00055375 0)
(0.997491 0.000792656 0)
(0.997324 0.00102261 0)
(0.997104 0.00132113 0)
(0.997037 0.00155222 0)
(0.997013 0.0017843 0)
(0.997054 0.00198319 0)
(0.997035 0.00217117 0)
(0.996975 0.00232581 0)
(0.996893 0.00247993 0)
(0.996867 0.00259942 0)
(0.996866 0.00271741 0)
(0.996866 0.00280903 0)
(0.996823 0.00290101 0)
(0.996718 0.0029732 0)
(0.996518 0.00303728 0)
(0.996129 0.00308891 0)
(0.999463 -8.32721e-05 0)
(1.00044 0.000913418 0)
(1.00123 -0.000614971 0)
(0.999721 -0.0020201 0)
(0.998031 -0.00165309 0)
(0.997509 -0.000118702 0)
(0.997938 0.00108758 0)
(0.998792 0.00113816 0)
(0.999435 0.000538588 0)
(0.999334 -3.88208e-06 0)
(0.998727 -0.000122921 0)
(0.998276 0.000126795 0)
(0.998288 0.000532317 0)
(0.998521 0.000896327 0)
(0.998722 0.00108877 0)
(0.998874 0.00108644 0)
(0.999068 0.000930797 0)
(0.999181 0.000704793 0)
(0.999085 0.000524265 0)
(0.998857 0.000403654 0)
(0.998507 0.00036537 0)
(0.998208 0.000431655 0)
(0.998109 0.000507584 0)
(0.997868 0.000704007 0)
(0.99768 0.00093378 0)
(0.997554 0.00112363 0)
(0.997356 0.00138387 0)
(0.997278 0.001595 0)
(0.997246 0.00179834 0)
(0.99729 0.00197163 0)
(0.997266 0.00214305 0)
(0.997202 0.00229069 0)
(0.997109 0.00243625 0)
(0.997064 0.00255577 0)
(0.997052 0.00266242 0)
(0.997037 0.00275389 0)
(0.99699 0.00283468 0)
(0.996871 0.00291263 0)
(0.996666 0.00297552 0)
(0.996267 0.00304021 0)
(0.99953 -5.0475e-05 0)
(1.0004 0.000730041 0)
(1.00102 -0.000548705 0)
(0.999669 -0.00172825 0)
(0.99823 -0.00139528 0)
(0.997797 -0.000119847 0)
(0.998102 0.000896921 0)
(0.99878 0.000978615 0)
(0.999358 0.000499665 0)
(0.999306 7.85023e-05 0)
(0.998788 2.77911e-06 0)
(0.998398 0.000208959 0)
(0.998424 0.000527149 0)
(0.998625 0.000812187 0)
(0.998769 0.000975407 0)
(0.99886 0.00099209 0)
(0.999006 0.000887969 0)
(0.999112 0.000726319 0)
(0.999041 0.000611253 0)
(0.998838 0.000546172 0)
(0.998537 0.000532834 0)
(0.998272 0.000627256 0)
(0.998204 0.000697817 0)
(0.998033 0.000852504 0)
(0.997852 0.00107823 0)
(0.997744 0.00123105 0)
(0.997574 0.00145302 0)
(0.997483 0.00163443 0)
(0.99745 0.00181593 0)
(0.997486 0.00196571 0)
(0.997466 0.00210933 0)
(0.997403 0.00224638 0)
(0.99731 0.00237168 0)
(0.997252 0.00249216 0)
(0.99723 0.00258404 0)
(0.997208 0.00267792 0)
(0.997164 0.00274801 0)
(0.997045 0.00283002 0)
(0.996838 0.00288893 0)
(0.996435 0.00295891 0)
(0.999593 -2.14252e-05 0)
(1.00036 0.000580427 0)
(1.00083 -0.000482027 0)
(0.999614 -0.0014839 0)
(0.99842 -0.00119435 0)
(0.998083 -0.000120633 0)
(0.99828 0.0007538 0)
(0.998785 0.000865156 0)
(0.999286 0.00047556 0)
(0.999279 0.00013552 0)
(0.998847 8.76928e-05 0)
(0.99852 0.000265273 0)
(0.998563 0.000524383 0)
(0.998741 0.000757575 0)
(0.998832 0.000905718 0)
(0.998859 0.000940734 0)
(0.998955 0.000876608 0)
(0.99905 0.000761771 0)
(0.998994 0.000684141 0)
(0.998818 0.000656987 0)
(0.998573 0.000665653 0)
(0.998335 0.000761509 0)
(0.998295 0.000845995 0)
(0.998201 0.000968639 0)
(0.998032 0.00117628 0)
(0.997934 0.00132234 0)
(0.997792 0.0015058 0)
(0.997703 0.00167451 0)
(0.997663 0.00183395 0)
(0.997689 0.00197149 0)
(0.997678 0.00209735 0)
(0.997618 0.00222548 0)
(0.99753 0.00233856 0)
(0.997454 0.00245338 0)
(0.997422 0.00253986 0)
(0.997388 0.00263023 0)
(0.997344 0.00269696 0)
(0.997222 0.00277414 0)
(0.997015 0.00283097 0)
(0.996605 0.00289656 0)
(0.999649 5.3552e-06 0)
(1.00033 0.000440081 0)
(1.00067 -0.000428146 0)
(0.999581 -0.00122822 0)
(0.998596 -0.000982546 0)
(0.998335 -0.000110661 0)
(0.998443 0.000615679 0)
(0.998806 0.000742261 0)
(0.999248 0.000447975 0)
(0.999281 0.000189443 0)
(0.998917 0.000174383 0)
(0.998628 0.000327968 0)
(0.998674 0.000527725 0)
(0.998833 0.000707759 0)
(0.998888 0.000834372 0)
(0.998873 0.000885025 0)
(0.998932 0.000859777 0)
(0.999019 0.000791472 0)
(0.998991 0.00075273 0)
(0.998838 0.000767054 0)
(0.998626 0.000795912 0)
(0.998422 0.000895437 0)
(0.998388 0.000997056 0)
(0.998344 0.00108735 0)
(0.998205 0.00127124 0)
(0.998101 0.00141313 0)
(0.997983 0.00156397 0)
(0.997895 0.00171376 0)
(0.997851 0.00184824 0)
(0.997871 0.00197586 0)
(0.997866 0.00208048 0)
(0.997813 0.00219862 0)
(0.997729 0.00229594 0)
(0.997649 0.00240406 0)
(0.997609 0.00248325 0)
(0.99757 0.00256925 0)
(0.997524 0.00263171 0)
(0.997404 0.00270336 0)
(0.997196 0.00275758 0)
(0.996785 0.00281847 0)
(0.9997 2.80149e-05 0)
(1.0003 0.000328422 0)
(1.00053 -0.000372194 0)
(0.999549 -0.00100561 0)
(0.998757 -0.000809157 0)
(0.998577 -0.000103294 0)
(0.998614 0.000510539 0)
(0.998845 0.00065373 0)
(0.99922 0.000431221 0)
(0.999287 0.000226458 0)
(0.998986 0.00023161 0)
(0.998733 0.000369522 0)
(0.998785 0.000530335 0)
(0.99893 0.000675733 0)
(0.998958 0.000793233 0)
(0.998902 0.000859094 0)
(0.998923 0.000862644 0)
(0.999001 0.000830038 0)
(0.998993 0.000816151 0)
(0.99886 0.000849536 0)
(0.998685 0.000901358 0)
(0.998513 0.000995628 0)
(0.998476 0.00110029 0)
(0.998481 0.00118583 0)
(0.998383 0.00133676 0)
(0.998277 0.0014795 0)
(0.99817 0.00161131 0)
(0.998088 0.00174324 0)
(0.998046 0.00186534 0)
(0.998055 0.00197943 0)
(0.998059 0.00207381 0)
(0.998013 0.00217815 0)
(0.997938 0.00226893 0)
(0.997853 0.00236794 0)
(0.997805 0.0024442 0)
(0.997756 0.00252293 0)
(0.997706 0.0025827 0)
(0.997586 0.00264733 0)
(0.997377 0.00269923 0)
(0.996967 0.00275461 0)
(0.999746 4.69233e-05 0)
(1.00027 0.000235983 0)
(1.00041 -0.000330111 0)
(0.999538 -0.000796 0)
(0.998905 -0.000634068 0)
(0.998792 -8.75503e-05 0)
(0.998774 0.00041802 0)
(0.998896 0.000568512 0)
(0.999218 0.000411567 0)
(0.999315 0.000260104 0)
(0.999066 0.000286917 0)
(0.998832 0.000414834 0)
(0.998876 0.000542064 0)
(0.999012 0.000652654 0)
(0.999025 0.000756279 0)
(0.998943 0.000834809 0)
(0.998937 0.000864921 0)
(0.999007 0.000862271 0)
(0.999021 0.000872225 0)
(0.998917 0.000926491 0)
(0.99876 0.000999731 0)
(0.998612 0.0010904 0)
(0.998581 0.00119853 0)
(0.998603 0.00128115 0)
(0.998547 0.00140115 0)
(0.998446 0.00153661 0)
(0.99834 0.00165625 0)
(0.998265 0.00177392 0)
(0.998222 0.00187815 0)
(0.998223 0.00197996 0)
(0.99823 0.00206238 0)
(0.998197 0.00215375 0)
(0.998134 0.00223527 0)
(0.998051 0.00232422 0)
(0.997995 0.00239665 0)
(0.997939 0.0024678 0)
(0.997885 0.00252536 0)
(0.997767 0.00258246 0)
(0.997558 0.0026326 0)
(0.99715 0.00268127 0)
(0.999787 6.0632e-05 0)
(1.00024 0.000169217 0)
(1.00032 -0.000287631 0)
(0.999534 -0.000613212 0)
(0.999035 -0.000483797 0)
(0.998991 -7.341e-05 0)
(0.998939 0.000346444 0)
(0.998964 0.000508403 0)
(0.999226 0.000401743 0)
(0.999346 0.000284012 0)
(0.999146 0.000322223 0)
(0.998928 0.000445815 0)
(0.998965 0.000553142 0)
(0.999096 0.000641124 0)
(0.999103 0.000736632 0)
(0.998999 0.000829154 0)
(0.998964 0.000881269 0)
(0.999024 0.000897999 0)
(0.999058 0.000924706 0)
(0.998978 0.000986879 0)
(0.998843 0.00107187 0)
(0.998716 0.00116809 0)
(0.998682 0.00126837 0)
(0.998719 0.00134915 0)
(0.998705 0.00144988 0)
(0.998622 0.00157111 0)
(0.998516 0.00168744 0)
(0.998436 0.00179373 0)
(0.998395 0.00188679 0)
(0.99839 0.00197685 0)
(0.998402 0.00205162 0)
(0.99838 0.00213185 0)
(0.998331 0.00220518 0)
(0.998253 0.00228495 0)
(0.998189 0.00235362 0)
(0.998127 0.00241942 0)
(0.998063 0.00247424 0)
(0.997946 0.00252575 0)
(0.997736 0.00257229 0)
(0.997331 0.00261582 0)
(0.999824 6.96631e-05 0)
(1.00021 0.000122426 0)
(1.00026 -0.000254324 0)
(0.99955 -0.000455003 0)
(0.999153 -0.000338871 0)
(0.999166 -5.00632e-05 0)
(0.999095 0.000285925 0)
(0.999042 0.000455732 0)
(0.99925 0.000393892 0)
(0.999391 0.000304571 0)
(0.999235 0.000353126 0)
(0.999023 0.000478356 0)
(0.999043 0.000572733 0)
(0.999167 0.000638734 0)
(0.999181 0.000722443 0)
(0.999069 0.00082363 0)
(0.999008 0.000897412 0)
(0.999057 0.000932192 0)
(0.999109 0.000968916 0)
(0.999062 0.0010378 0)
(0.998946 0.00113327 0)
(0.998826 0.00123359 0)
(0.998791 0.00133129 0)
(0.998831 0.0014105 0)
(0.998847 0.00149388 0)
(0.998791 0.00159848 0)
(0.998688 0.00170568 0)
(0.9986 0.00180705 0)
(0.998555 0.00189109 0)
(0.998545 0.00197061 0)
(0.998558 0.00203747 0)
(0.998547 0.00210566 0)
(0.998513 0.00217123 0)
(0.998446 0.0022397 0)
(0.998381 0.00230462 0)
(0.998313 0.00236366 0)
(0.99824 0.00241689 0)
(0.998121 0.0024627 0)
(0.997909 0.00250672 0)
(0.997507 0.00254503 0)
(0.999856 7.2992e-05 0)
(1.00018 9.5225e-05 0)
(1.00021 -0.000219873 0)
(0.999577 -0.000322705 0)
(0.999256 -0.000212489 0)
(0.99932 -2.43516e-05 0)
(0.999252 0.00023833 0)
(0.999133 0.000418634 0)
(0.999281 0.000396623 0)
(0.999436 0.000323039 0)
(0.999325 0.000371472 0)
(0.99912 0.000500414 0)
(0.999117 0.00059387 0)
(0.999236 0.00064622 0)
(0.999264 0.000718191 0)
(0.999153 0.000824916 0)
(0.999068 0.000918949 0)
(0.999098 0.000969171 0)
(0.999165 0.00101057 0)
(0.999148 0.00107879 0)
(0.999057 0.00117313 0)
(0.998947 0.00127903 0)
(0.998902 0.00137774 0)
(0.998936 0.00145311 0)
(0.998977 0.00152489 0)
(0.998952 0.00161134 0)
(0.998867 0.00170827 0)
(0.998771 0.00180526 0)
(0.998714 0.0018856 0)
(0.998697 0.00195857 0)
(0.998708 0.00201925 0)
(0.998708 0.00207901 0)
(0.998687 0.00213694 0)
(0.998635 0.00219652 0)
(0.998572 0.00225531 0)
(0.998501 0.00230902 0)
(0.998419 0.00235893 0)
(0.998295 0.00240127 0)
(0.99808 0.00244186 0)
(0.997679 0.00247662 0)
(0.999885 7.13222e-05 0)
(1.00015 8.30057e-05 0)
(1.00018 -0.000188382 0)
(0.999621 -0.000216776 0)
(0.999351 -9.69473e-05 0)
(0.999449 1.17926e-05 0)
(0.999397 0.000200618 0)
(0.999233 0.000385533 0)
(0.999322 0.000404143 0)
(0.999483 0.000344434 0)
(0.999418 0.000386174 0)
(0.999221 0.00051864 0)
(0.999187 0.000619341 0)
(0.999293 0.000664552 0)
(0.999343 0.000720916 0)
(0.99925 0.000823109 0)
(0.999146 0.000934299 0)
(0.999151 0.00100382 0)
(0.999225 0.00104876 0)
(0.99924 0.00111281 0)
(0.999179 0.00120344 0)
(0.99908 0.00130804 0)
(0.999022 0.00140904 0)
(0.99904 0.00148749 0)
(0.999091 0.00155027 0)
(0.999097 0.00162039 0)
(0.999038 0.00170198 0)
(0.998944 0.0017903 0)
(0.998876 0.0018691 0)
(0.998845 0.00193762 0)
(0.998851 0.00199571 0)
(0.998856 0.00204815 0)
(0.998847 0.00209976 0)
(0.998809 0.00215039 0)
(0.998754 0.00220234 0)
(0.998684 0.0022501 0)
(0.998596 0.00229575 0)
(0.998466 0.00233489 0)
(0.998247 0.00237186 0)
(0.997845 0.00240389 0)
(0.99991 6.46268e-05 0)
(1.00012 8.28931e-05 0)
(1.00016 -0.000153671 0)
(0.999675 -0.000134536 0)
(0.999434 -5.51361e-07 0)
(0.999553 5.3939e-05 0)
(0.999534 0.000175338 0)
(0.999344 0.00035777 0)
(0.999368 0.000417593 0)
(0.999522 0.000372323 0)
(0.999505 0.000397974 0)
(0.999328 0.000526755 0)
(0.999262 0.000640888 0)
(0.999345 0.000690804 0)
(0.999416 0.000735498 0)
(0.999353 0.000824058 0)
(0.999244 0.00094268 0)
(0.999217 0.00103315 0)
(0.999284 0.00108513 0)
(0.999327 0.00114214 0)
(0.999299 0.0012228 0)
(0.99922 0.00132019 0)
(0.999156 0.00141996 0)
(0.99915 0.00150294 0)
(0.999194 0.00156452 0)
(0.999222 0.00162244 0)
(0.999195 0.00168793 0)
(0.999119 0.00176429 0)
(0.999045 0.0018388 0)
(0.999002 0.00190559 0)
(0.998995 0.00196239 0)
(0.999 0.00201151 0)
(0.998997 0.00205802 0)
(0.998972 0.00210229 0)
(0.998926 0.00214751 0)
(0.99886 0.00218975 0)
(0.998769 0.00223059 0)
(0.998635 0.00226642 0)
(0.998412 0.00229996 0)
(0.998007 0.00232935 0)
(0.999932 5.44071e-05 0)
(1.00009 9.04816e-05 0)
(1.00014 -0.000116944 0)
(0.99974 -7.47086e-05 0)
(0.999512 7.75823e-05 0)
(0.99963 0.000105811 0)
(0.99965 0.000165885 0)
(0.99946 0.000330328 0)
(0.999425 0.000427984 0)
(0.999555 0.000407624 0)
(0.999584 0.000416548 0)
(0.999438 0.000530081 0)
(0.999345 0.000656056 0)
(0.999395 0.000719533 0)
(0.999477 0.000759321 0)
(0.999453 0.000829959 0)
(0.999359 0.000941309 0)
(0.999304 0.00104741 0)
(0.999349 0.00111426 0)
(0.999408 0.00116757 0)
(0.999413 0.00123645 0)
(0.99936 0.00132294 0)
(0.9993 0.00141594 0)
(0.999275 0.00150036 0)
(0.999299 0.0015658 0)
(0.99933 0.00161879 0)
(0.99933 0.0016722 0)
(0.999281 0.00173379 0)
(0.999216 0.00180005 0)
(0.999165 0.00186303 0)
(0.999146 0.00191845 0)
(0.999143 0.00196581 0)
(0.999141 0.00200867 0)
(0.999124 0.00204842 0)
(0.999086 0.00208756 0)
(0.999025 0.00212481 0)
(0.998935 0.00216056 0)
(0.998798 0.00219312 0)
(0.998572 0.00222315 0)
(0.998164 0.00225017 0)
(0.999951 4.21776e-05 0)
(1.00006 0.000100989 0)
(1.00012 -7.41665e-05 0)
(0.999807 -3.21415e-05 0)
(0.999586 0.000130485 0)
(0.999685 0.000160906 0)
(0.999743 0.000176387 0)
(0.999576 0.000307658 0)
(0.999492 0.000431245 0)
(0.999583 0.000445224 0)
(0.999645 0.000445346 0)
(0.999545 0.000531864 0)
(0.99944 0.000660892 0)
(0.999453 0.000743565 0)
(0.99953 0.000787409 0)
(0.999541 0.00084519 0)
(0.999478 0.00093874 0)
(0.999413 0.00104656 0)
(0.999427 0.00112901 0)
(0.999483 0.00118586 0)
(0.999515 0.00124511 0)
(0.999491 0.0013177 0)
(0.999445 0.00140023 0)
(0.999411 0.00148069 0)
(0.999414 0.00154812 0)
(0.999434 0.00160214 0)
(0.999446 0.00165022 0)
(0.999423 0.00170073 0)
(0.999377 0.00175658 0)
(0.999331 0.001813 0)
(0.999302 0.0018652 0)
(0.99929 0.00191077 0)
(0.999283 0.00195103 0)
(0.999268 0.00198744 0)
(0.999236 0.00202197 0)
(0.99918 0.00205475 0)
(0.999093 0.00208605 0)
(0.998955 0.00211506 0)
(0.998726 0.00214188 0)
(0.998317 0.00216624 0)
(0.999966 3.10234e-05 0)
(1.00004 0.000109189 0)
(1.0001 -2.80462e-05 0)
(0.999868 -6.98339e-07 0)
(0.999659 0.000161452 0)
(0.999725 0.000214209 0)
(0.999807 0.00020575 0)
(0.999681 0.000293506 0)
(0.999573 0.000425939 0)
(0.999616 0.000477155 0)
(0.999689 0.000482758 0)
(0.999639 0.000542255 0)
(0.999544 0.000658978 0)
(0.999522 0.000756674 0)
(0.999582 0.000811774 0)
(0.999615 0.000863702 0)
(0.999587 0.000939377 0)
(0.999532 0.00103571 0)
(0.999524 0.00112485 0)
(0.999563 0.00119018 0)
(0.999606 0.00124566 0)
(0.999608 0.00130727 0)
(0.999582 0.00137745 0)
(0.99955 0.00145026 0)
(0.99954 0.00151625 0)
(0.999547 0.00157151 0)
(0.999557 0.00161891 0)
(0.999548 0.00166391 0)
(0.999523 0.00171131 0)
(0.999487 0.00175998 0)
(0.999458 0.00180704 0)
(0.999438 0.00184981 0)
(0.999425 0.00188768 0)
(0.999407 0.00192173 0)
(0.999377 0.00195299 0)
(0.999324 0.00198248 0)
(0.99924 0.00201024 0)
(0.999102 0.00203632 0)
(0.998872 0.00206042 0)
(0.998461 0.00208261 0)
(0.999978 2.29017e-05 0)
(1.00002 0.000111646 0)
(1.00008 1.83107e-05 0)
(0.999918 2.88443e-05 0)
(0.999731 0.000175297 0)
(0.999759 0.000254513 0)
(0.999846 0.000245656 0)
(0.999768 0.000295342 0)
(0.999661 0.000417945 0)
(0.99966 0.000496438 0)
(0.999724 0.000518731 0)
(0.999714 0.000562599 0)
(0.999647 0.000656449 0)
(0.999606 0.000757048 0)
(0.999641 0.000826067 0)
(0.999681 0.000879021 0)
(0.999682 0.000942318 0)
(0.999648 0.00102269 0)
(0.999634 0.00110675 0)
(0.999654 0.00117645 0)
(0.999694 0.00123203 0)
(0.999712 0.00128548 0)
(0.999707 0.00134379 0)
(0.999685 0.001406 0)
(0.999671 0.00146624 0)
(0.999668 0.00151967 0)
(0.999672 0.00156586 0)
(0.999669 0.00160774 0)
(0.999656 0.00164888 0)
(0.999632 0.00169006 0)
(0.999608 0.00173063 0)
(0.999585 0.00176869 0)
(0.999567 0.00180326 0)
(0.999546 0.00183456 0)
(0.999515 0.001863 0)
(0.999464 0.00188956 0)
(0.999382 0.00191428 0)
(0.999246 0.0019376 0)
(0.999016 0.00195919 0)
(0.998604 0.00197931 0)
(0.999987 1.9134e-05 0)
(1.00001 0.000108115 0)
(1.00005 6.02073e-05 0)
(0.999954 6.0905e-05 0)
(0.9998 0.000182045 0)
(0.999794 0.000279279 0)
(0.999868 0.000286198 0)
(0.999832 0.000313721 0)
(0.999747 0.000412714 0)
(0.999716 0.000503132 0)
(0.99976 0.000546674 0)
(0.999773 0.000587324 0)
(0.999737 0.000659729 0)
(0.999697 0.000750772 0)
(0.999712 0.000827787 0)
(0.999745 0.000885872 0)
(0.999763 0.000943216 0)
(0.999751 0.00101153 0)
(0.999743 0.00108674 0)
(0.999751 0.00115664 0)
(0.99978 0.00121524 0)
(0.999803 0.00126743 0)
(0.999813 0.00131991 0)
(0.999806 0.00137477 0)
(0.999796 0.00142963 0)
(0.999787 0.00148093 0)
(0.999786 0.00152694 0)
(0.999782 0.00156845 0)
(0.999775 0.00160721 0)
(0.999759 0.00164441 0)
(0.999741 0.00168044 0)
(0.99972 0.00171441 0)
(0.999701 0.00174583 0)
(0.999677 0.00177431 0)
(0.999645 0.00180007 0)
(0.999594 0.00182355 0)
(0.999513 0.00184502 0)
(0.999379 0.00186489 0)
(0.99915 0.00188313 0)
(0.998738 0.00189999 0)
(0.999993 1.83471e-05 0)
(0.999999 0.000102752 0)
(1.00003 9.16584e-05 0)
(0.999977 9.74481e-05 0)
(0.999861 0.000185441 0)
(0.999833 0.000291744 0)
(0.999885 0.000316831 0)
(0.999877 0.000341232 0)
(0.999822 0.000415616 0)
(0.99978 0.000501706 0)
(0.999803 0.000561777 0)
(0.999823 0.000606838 0)
(0.999813 0.000664859 0)
(0.999785 0.000741322 0)
(0.99979 0.000815526 0)
(0.999814 0.000874571 0)
(0.99984 0.000926038 0)
(0.999847 0.000981233 0)
(0.999852 0.00104096 0)
(0.99986 0.00109947 0)
(0.999883 0.00115119 0)
(0.999905 0.00119715 0)
(0.999924 0.00124076 0)
(0.999928 0.00128497 0)
(0.999926 0.00132969 0)
(0.999919 0.0013737 0)
(0.999916 0.00141518 0)
(0.99991 0.00145404 0)
(0.999904 0.00149029 0)
(0.999891 0.00152514 0)
(0.999876 0.0015588 0)
(0.999856 0.00159142 0)
(0.999834 0.0016227 0)
(0.999806 0.00165239 0)
(0.99977 0.00168037 0)
(0.999714 0.00170671 0)
(0.99963 0.00173147 0)
(0.999492 0.00175481 0)
(0.999261 0.00177662 0)