/*--------------------------------*- C++ -*----------------------------------*\
| =========                 |                                                 |
| \\      /  F ield         | OpenFOAM: The Open Source CFD Toolbox           |
|  \\    /   O peration     | Version:  2312                                  |
|   \\  /    A nd           | Website:  www.openfoam.com                      |
|    \\/     M anipulation  |                                                 |
\*---------------------------------------------------------------------------*/
FoamFile
{
    version     2.0;
    format      ascii;
    arch        "LSB;label=32;scalar=64";
    class       volScalarField;
    location    "0.45";
    object      p;
}
// * * * * * * * * * * * * * * * * * * * * * * * * * * * * * * * * * * * * * //

dimensions      [0 2 -2 0 0 0 0];

internalField   nonuniform List<scalar> 
5600
(
3.30054e-10
0.000470374
0.000301309
0.000448173
0.000377494
0.000540364
0.000525354
0.000664669
0.000694982
0.00085818
0.000889675
0.00102064
0.001103
0.00123116
0.00135348
0.00147584
0.00159265
0.00174769
0.00189705
0.00204568
0.00221236
0.00237347
0.00256178
0.00275894
0.00295818
0.00317116
0.00339199
0.00362325
0.00385632
0.00410551
0.00436418
0.00464068
0.00493158
0.00523202
0.00553021
0.00581794
0.00610321
0.00638471
0.00659894
0.0065699
2.51352e-06
0.000467582
0.000303456
0.000445277
0.000379846
0.000536499
0.000527451
0.00066014
0.000697981
0.000847262
0.000891285
0.00101554
0.0011032
0.00122612
0.00135217
0.00147033
0.00158919
0.0017425
0.00189244
0.002042
0.00220097
0.00236811
0.00255292
0.00274586
0.00294284
0.00314983
0.0033679
0.00359636
0.00383154
0.00407163
0.0043161
0.00456114
0.0048013
0.00503816
0.00527186
0.0054914
0.00566994
0.00576544
0.00570723
0.00537129
4.80218e-06
0.000465992
0.000304695
0.000443819
0.000380625
0.000534857
0.000527955
0.000658495
0.000698621
0.000843182
0.000891076
0.00101363
0.00110267
0.00122395
0.00135074
0.00146775
0.00158665
0.00174009
0.00188902
0.00203739
0.00219517
0.00236257
0.00254527
0.00273734
0.00293241
0.00313821
0.0033527
0.00357628
0.00380101
0.00403058
0.00426158
0.00448937
0.00470965
0.00492583
0.0051366
0.00532937
0.0054768
0.00554318
0.00546762
0.00514291
8.61293e-06
0.000461978
0.000307454
0.00043984
0.000383714
0.000529914
0.000530561
0.000651865
0.000701534
0.000833653
0.000892884
0.00100704
0.0011031
0.00121743
0.00134899
0.00146198
0.00158203
0.00173529
0.00188283
0.00203056
0.00218549
0.00235086
0.0025327
0.0027202
0.00291204
0.00311191
0.0033228
0.0035404
0.00375674
0.00396567
0.00416653
0.00436505
0.0045641
0.0047583
0.00493415
0.00507348
0.00515212
0.00513757
0.00497814
0.00458058
1.2109e-05
0.000458293
0.000309708
0.000436907
0.000385381
0.000526282
0.000531475
0.000648991
0.000702744
0.000827725
0.00089205
0.00100346
0.00110196
0.00121387
0.00134578
0.00145733
0.00157688
0.00172949
0.00187563
0.00202195
0.00217439
0.00233899
0.00251727
0.00270203
0.00288916
0.00308283
0.00328461
0.00349042
0.00369234
0.00388463
0.00406658
0.00424606
0.00442594
0.00459771
0.00474564
0.00485261
0.00489884
0.00485803
0.00468497
0.00429233
1.6902e-05
0.000452311
0.000313565
0.000431715
0.000389596
0.000519568
0.00053541
0.000641361
0.000705193
0.000818474
0.000893149
0.000997164
0.00109933
0.00120969
0.00134114
0.00145084
0.00156922
0.00172168
0.00186606
0.00201046
0.00216038
0.00232178
0.00249698
0.00267717
0.00285831
0.00304382
0.00323481
0.00342535
0.00360643
0.00377658
0.00394439
0.00411339
0.00427881
0.0044299
0.00455355
0.00463488
0.00465582
0.0045901
0.00439338
0.00397882
2.16901e-05
0.000446067
0.000317052
0.000427142
0.000392366
0.000513775
0.000536314
0.000635428
0.00070609
0.000811638
0.000890304
0.000993206
0.00109549
0.0012046
0.00133543
0.00144347
0.00156035
0.00171237
0.0018544
0.00199662
0.00214318
0.00230082
0.0024715
0.0026456
0.00281874
0.00299281
0.00316887
0.00334009
0.00350275
0.00365997
0.00381747
0.00397421
0.00412363
0.00425589
0.00436071
0.0044258
0.00443514
0.00436334
0.00416512
0.00374966
2.78243e-05
0.000437294
0.000322251
0.000420472
0.000397671
0.000505057
0.000541289
0.000627713
0.00070626
0.000803972
0.000886225
0.000989541
0.00109055
0.00119756
0.00132788
0.00143479
0.00154919
0.00170077
0.00183981
0.00197923
0.002122
0.0022747
0.00243943
0.00260538
0.00276732
0.00292649
0.00308458
0.00323792
0.00338815
0.00353602
0.0036827
0.0038255
0.00395895
0.00407537
0.00416638
0.00422215
0.00422832
0.00416144
0.00397771
0.00358831
3.42363e-05
0.00042767
0.000327189
0.000414213
0.000401487
0.000496935
0.000541415
0.000620695
0.000705088
0.000798722
0.000880871
0.000983831
0.00108462
0.00118988
0.00131929
0.00142437
0.00153593
0.00168641
0.00182252
0.00195771
0.00209672
0.00224271
0.00240091
0.00255583
0.00270118
0.00283922
0.00298113
0.00312501
0.00326581
0.00340059
0.00353184
0.00366026
0.00378455
0.00390046
0.0040015
0.00407741
0.00411108
0.00407169
0.00389849
0.00346833
4.20903e-05
0.000415262
0.000333603
0.000406056
0.00040739
0.000486952
0.00054457
0.000612337
0.00070053
0.000793518
0.0008747
0.000976078
0.00107794
0.00118056
0.00130892
0.0014117
0.00152008
0.00166843
0.00180235
0.00193086
0.0020654
0.00220221
0.00234928
0.0024896
0.00261838
0.00274557
0.00287889
0.00301163
0.00313716
0.00325028
0.00335178
0.00344283
0.00352743
0.00361186
0.00369864
0.00377847
0.0038497
0.00393948
0.00411963
0.00452895
5.04696e-05
0.00040141
0.000339958
0.00039845
0.000411533
0.000477338
0.000543085
0.000608955
0.000695173
0.000787018
0.00086719
0.00096783
0.00106934
0.00116969
0.00129606
0.00139708
0.00150117
0.00164666
0.0017783
0.00189825
0.00202593
0.00215151
0.00228146
0.00240909
0.00253067
0.00264995
0.00277116
0.00288859
0.00299735
0.00309531
0.00318706
0.00327926
0.00337769
0.00348093
0.0035777
0.00366253
0.003745
0.00385368
0.00404256
0.00441269
6.03824e-05
0.00038457
0.000346675
0.000390418
0.000416178
0.000469916
0.000536442
0.000604648
0.000689372
0.000778974
0.000858711
0.000958134
0.00105891
0.00115717
0.00128018
0.00137997
0.00147909
0.00161996
0.00174876
0.00185791
0.00197286
0.0020874
0.0022051
0.00232491
0.00243916
0.00254837
0.00265634
0.00276108
0.00285966
0.00295334
0.00304879
0.00314895
0.00324616
0.00333193
0.0034047
0.00347337
0.00355643
0.00368445
0.00390778
0.00432162
7.09192e-05
0.00036625
0.000353267
0.000382388
0.0004164
0.000465971
0.000529392
0.000598309
0.000682982
0.000771018
0.000848866
0.000946499
0.00104639
0.0011423
0.00126146
0.00135915
0.0014533
0.00158721
0.0017111
0.00180781
0.00190706
0.00201589
0.00212731
0.0022374
0.00233935
0.0024347
0.00253127
0.00263223
0.00273761
0.00284133
0.00293827
0.00302514
0.00310077
0.00316644
0.00322737
0.00329479
0.00338623
0.00352777
0.0037635
0.00417983
8.29616e-05
0.000344457
0.000358135
0.000379276
0.000413313
0.00046165
0.000522505
0.000589442
0.000673698
0.000761725
0.000837662
0.000932873
0.00103152
0.00112477
0.0012396
0.0013336
0.00142232
0.00154726
0.00166164
0.00174879
0.00183702
0.00193937
0.00204541
0.00214698
0.00224203
0.00233157
0.00242215
0.00251374
0.00260649
0.00269998
0.0027903
0.00287087
0.00293886
0.00299705
0.0030535
0.00311996
0.00321265
0.0033557
0.00359111
0.00400478
9.55089e-05
0.000323669
0.000359854
0.000375476
0.000408045
0.000456388
0.000516526
0.000581076
0.000662884
0.000750278
0.0008243
0.000916958
0.0010142
0.00110415
0.00121379
0.00130272
0.00138362
0.0014994
0.00160368
0.00168386
0.00176471
0.00185777
0.00195609
0.00204736
0.00213278
0.00221531
0.00230461
0.00240112
0.00249647
0.0025814
0.00265361
0.00271522
0.00276953
0.00282039
0.00287367
0.00293896
0.00303096
0.0031732
0.00340783
0.00382124
0.000108992
0.000302268
0.000355689
0.000372765
0.000403967
0.000450464
0.000509193
0.000571777
0.000650309
0.000736057
0.000808157
0.000897887
0.000993696
0.00107963
0.00118236
0.00126558
0.00133693
0.00144431
0.00154199
0.00161371
0.00168657
0.00176949
0.00185917
0.00194349
0.00202514
0.00210836
0.00219874
0.00229101
0.00237479
0.00244402
0.00249991
0.00254801
0.00259297
0.00263861
0.0026895
0.00275397
0.00284571
0.00298785
0.00322237
0.00363558
0.000122677
0.000282606
0.00034717
0.000369014
0.000399314
0.000443736
0.000500574
0.000561284
0.000636796
0.000720282
0.000789432
0.000874885
0.000969121
0.00105058
0.00114436
0.00122221
0.00128523
0.00138218
0.00147527
0.00153913
0.0016027
0.00167715
0.00176028
0.00184083
0.00191808
0.00199665
0.00207985
0.00216333
0.00223671
0.00229495
0.00234007
0.00237897
0.00241708
0.00245848
0.00250709
0.00257035
0.00266125
0.00280265
0.0030365
0.00344941
0.000136346
0.000263425
0.000333876
0.000363831
0.000394426
0.000436715
0.000491299
0.000549481
0.00062103
0.000701844
0.000767662
0.000847788
0.0009394
0.00101577
0.00109948
0.00117211
0.00122981
0.00131468
0.00140193
0.00146052
0.00151415
0.00158007
0.00165571
0.00173226
0.00180644
0.00188085
0.001956
0.00202887
0.00209181
0.00214093
0.00217826
0.00221032
0.00224292
0.00228034
0.00232643
0.00238805
0.00247772
0.00261801
0.00285095
0.00326333
0.000149876
0.000246638
0.000314901
0.000356192
0.000388778
0.000428921
0.000480877
0.000536321
0.000603418
0.000680697
0.000742612
0.000816085
0.000903612
0.000974664
0.00104875
0.00111489
0.00116921
0.00124408
0.00132231
0.00137659
0.0014219
0.00147913
0.00154723
0.00161879
0.00168957
0.00175922
0.00182654
0.00188876
0.00194153
0.00198244
0.00201366
0.00204048
0.00206854
0.00210217
0.00214562
0.00220548
0.00229397
0.00243326
0.00266539
0.00307728
0.000160104
0.00023248
0.000296438
0.000343832
0.000380357
0.000419711
0.000469172
0.00052175
0.000583761
0.000656482
0.000713812
0.000779385
0.000861298
0.00092731
0.000993721
0.00105225
0.00110121
0.00116884
0.00123753
0.00128653
0.00132515
0.00137423
0.0014355
0.001501
0.0015673
0.00163151
0.0016918
0.00174459
0.00178763
0.00182044
0.00184601
0.00186881
0.00189362
0.00192436
0.00196546
0.00202358
0.00211087
0.00224929
0.0024808
0.00289239
0.000167111
0.000222606
0.000277268
0.000325451
0.000368096
0.000408683
0.000455933
0.000505331
0.000561743
0.000628962
0.00068143
0.000737531
0.000812597
0.000873994
0.000933634
0.000985801
0.0010259
0.0010862
0.00114831
0.00119094
0.00122324
0.00126486
0.00132065
0.00138094
0.00144149
0.00149897
0.00155185
0.0015964
0.00163094
0.00165622
0.00167619
0.00169537
0.00171783
0.0017468
0.00178628
0.00184296
0.00192901
0.00206649
0.00229737
0.00270872
0.000171073
0.000212721
0.00025902
0.00030542
0.000351329
0.000393929
0.000439813
0.000486352
0.000537115
0.000597947
0.000645449
0.000691902
0.00075881
0.000814555
0.000866679
0.000914278
0.000945445
0.000995561
0.00105295
0.00109098
0.00111709
0.00115102
0.00120193
0.00125912
0.00131441
0.00136379
0.00140754
0.00144386
0.00147112
0.00149023
0.00150519
0.00152091
0.00154121
0.001569
0.00160762
0.00166346
0.00174856
0.00188513
0.0021153
0.00252636
0.000171549
0.00020301
0.000242099
0.000284599
0.000329532
0.000373914
0.000419423
0.000463811
0.000509501
0.000563374
0.000605886
0.000642824
0.000700065
0.000750228
0.000792803
0.000835404
0.000860795
0.000898248
0.000950132
0.000986623
0.00100853
0.00103482
0.00107992
0.00113485
0.00118568
0.0012267
0.00125995
0.00128725
0.00130792
0.00132246
0.00133377
0.00134658
0.00136477
0.00139136
0.0014294
0.00148491
0.00156955
0.00170548
0.00193499
0.00234569
0.000168545
0.000192333
0.000224896
0.00026312
0.000305158
0.000348601
0.000393784
0.000436564
0.000477805
0.000524842
0.000562255
0.000590579
0.000636938
0.000681158
0.000713711
0.000748731
0.000770771
0.00079655
0.000840191
0.00087679
0.000898347
0.000919231
0.000956777
0.00100698
0.00105329
0.001087
0.00111013
0.00112797
0.00114211
0.00115308
0.00116217
0.00117303
0.00118937
0.00121461
0.00125203
0.00130742
0.00139202
0.00152771
0.00175679
0.00216721
0.000161766
0.000180322
0.00020718
0.000241004
0.000279281
0.000318837
0.000361865
0.000403404
0.000440952
0.000481443
0.000514103
0.000535081
0.000569681
0.000607402
0.000631372
0.000655543
0.000674101
0.000691377
0.000724931
0.000760831
0.000785655
0.000805124
0.000834656
0.000876025
0.000915383
0.000942629
0.000957877
0.00096756
0.000975537
0.000983165
0.000990856
0.00100075
0.00101591
0.00103987
0.00107642
0.00113149
0.00121616
0.00135195
0.00158103
0.00199144
0.000151414
0.000165972
0.000188091
0.000217172
0.000251608
0.000286614
0.000324467
0.000363325
0.000397873
0.000432277
0.000460266
0.000475855
0.000499063
0.000528855
0.000546197
0.000559487
0.00057205
0.000583224
0.00060705
0.000640178
0.000669061
0.000690505
0.000713159
0.000742847
0.000772299
0.000792936
0.000802816
0.000806882
0.000809876
0.000814211
0.000820425
0.000829668
0.000844162
0.000867148
0.000902737
0.000957206
0.00104173
0.00117763
0.00140683
0.00181735
0.000137397
0.000148922
0.00016706
0.000191355
0.00022147
0.000252089
0.000283966
0.000317208
0.000348002
0.000376673
0.000399432
0.00041117
0.000424887
0.000445435
0.000457757
0.000462636
0.000467887
0.00047397
0.000489734
0.00051772
0.000548342
0.000572393
0.000590519
0.000608895
0.000627132
0.000640698
0.000646834
0.0006478
0.00064758
0.000649141
0.000653739
0.000662235
0.000676236
0.000698529
0.000733344
0.000787268
0.000871725
0.00100796
0.00123775
0.00164895
0.000119436
0.000128431
0.000143134
0.000162913
0.000188082
0.00021419
0.000240629
0.000267313
0.000292849
0.000315993
0.000332566
0.000340077
0.00034631
0.000357116
0.000364037
0.00036336
0.000361423
0.000361238
0.000368829
0.000389097
0.000417067
0.000442201
0.000458938
0.000470176
0.000478985
0.00048529
0.00048771
0.000486754
0.000484745
0.000484224
0.000486939
0.000494059
0.000507082
0.000528484
0.000562382
0.000615485
0.000699433
0.000835586
0.00106566
0.00147742
9.83209e-05
0.000104628
0.000115906
0.000131093
0.000151073
0.000172232
0.000193497
0.00021351
0.000232559
0.000250654
0.000262172
0.000265767
0.000267348
0.000271155
0.0002735
0.000270033
0.000264093
0.000259072
0.000259247
0.000269585
0.000289428
0.000311298
0.000327151
0.000335418
0.000338507
0.000338693
0.000336854
0.00033361
0.00033023
0.000328343
0.000329506
0.000335047
0.000346626
0.000366722
0.000399394
0.000451345
0.000534234
0.000669405
0.000898564
0.00130941
7.18891e-05
7.65416e-05
8.50219e-05
9.62274e-05
0.000111337
0.000127159
0.00014285
0.000156451
0.000167464
0.000178553
0.000184092
0.00018131
0.000175677
0.000170481
0.000164963
0.000155675
0.000144509
0.00013513
0.000130872
0.000135301
0.000148696
0.000166103
0.000180592
0.00018848
0.000189867
0.000186658
0.0001809
0.000174393
0.000168845
0.000165893
0.000166972
0.000173388
0.000186655
0.000209039
0.000244346
0.000299111
0.000384907
0.00052307
0.000755284
0.00116927
4.44065e-05
4.33242e-05
4.78614e-05
5.55766e-05
6.73845e-05
7.8805e-05
8.9447e-05
9.82705e-05
0.000103872
0.000109809
0.000114131
0.000111296
0.000105289
9.90574e-05
9.28623e-05
8.30784e-05
6.95883e-05
5.47253e-05
4.0797e-05
2.98949e-05
2.38385e-05
2.43541e-05
3.14393e-05
4.13328e-05
4.81483e-05
4.81666e-05
4.10025e-05
2.85755e-05
1.37848e-05
-6.24435e-07
-1.22792e-05
-1.919e-05
-1.92547e-05
-9.75069e-06
1.35214e-05
5.74122e-05
0.000133815
0.000264385
0.000491219
0.000902623
7.50501e-06
8.53605e-06
1.11165e-05
1.40902e-05
1.87675e-05
2.3229e-05
2.63562e-05
2.85321e-05
2.70342e-05
2.30592e-05
1.83745e-05
7.49185e-06
-8.73514e-06
-2.60473e-05
-4.24937e-05
-5.96983e-05
-7.78711e-05
-9.36207e-05
-0.000103528
-0.000105636
-0.000101119
-9.38132e-05
-8.79941e-05
-8.63665e-05
-8.97371e-05
-9.71594e-05
-0.000106531
-0.000115431
-0.000121774
-0.000124139
-0.000121618
-0.000113423
-9.83547e-05
-7.42304e-05
-3.71504e-05
1.96462e-05
0.000108032
0.000249662
0.000486511
0.000906572
-3.75867e-05
-3.2033e-05
-2.83078e-05
-2.78704e-05
-2.8592e-05
-3.02249e-05
-3.22934e-05
-3.26914e-05
-3.36643e-05
-3.65794e-05
-3.92052e-05
-4.43947e-05
-5.41232e-05
-6.53769e-05
-7.61104e-05
-8.69812e-05
-9.98638e-05
-0.000113922
-0.000127978
-0.000141325
-0.000154731
-0.000168809
-0.000184027
-0.00020046
-0.000218485
-0.000238587
-0.000261263
-0.000286658
-0.000314814
-0.000345799
-0.000380025
-0.000418347
-0.000462321
-0.000514456
-0.000578895
-0.000662566
-0.000777559
-0.000945843
-0.00120985
-0.00165819
-7.54724e-05
-7.70823e-05
-8.03067e-05
-8.5594e-05
-9.17243e-05
-9.84558e-05
-0.000106786
-0.000116691
-0.000128417
-0.000144014
-0.000161509
-0.000181274
-0.00020442
-0.000229305
-0.000253404
-0.000274612
-0.000292192
-0.000304789
-0.000311504
-0.000313723
-0.000314825
-0.000318028
-0.000324741
-0.000334308
-0.000344867
-0.000354563
-0.00036213
-0.000366871
-0.000368335
-0.000366114
-0.000359633
-0.000348035
-0.000329916
-0.000302955
-0.000263212
-0.000203948
-0.000113304
3.03771e-05
0.000269072
0.000690718
-0.0001245
-0.000126419
-0.000129793
-0.000134816
-0.000140781
-0.000147414
-0.000155079
-0.000164057
-0.000173092
-0.000183456
-0.00019504
-0.000206696
-0.000219646
-0.000234875
-0.000251269
-0.000268005
-0.000285922
-0.000305774
-0.000327297
-0.000349852
-0.000373403
-0.000398447
-0.000425421
-0.000454479
-0.000485592
-0.000518639
-0.000553526
-0.000590259
-0.000628881
-0.000669562
-0.000712691
-0.00075908
-0.000810165
-0.000868373
-0.000937729
-0.00102504
-0.00114216
-0.00131076
-0.00157279
-0.0020162
-0.000176531
-0.000181781
-0.000190975
-0.000203644
-0.000218592
-0.000235356
-0.000253607
-0.000274034
-0.00029579
-0.000319593
-0.000345313
-0.000371449
-0.000397847
-0.0004234
-0.000445813
-0.000463248
-0.000475029
-0.000482576
-0.000488583
-0.000495598
-0.00050492
-0.000516455
-0.000529045
-0.000541208
-0.000551722
-0.00055988
-0.000565286
-0.000567731
-0.000567037
-0.00056298
-0.000555133
-0.000542698
-0.000524248
-0.000497367
-0.000458017
-0.000399387
-0.000309602
-0.000167023
7.02982e-05
0.000490297
-0.000228467
-0.00023279
-0.000239742
-0.000249198
-0.000260336
-0.000272701
-0.000286032
-0.000300539
-0.000315278
-0.000331366
-0.000348529
-0.000365496
-0.00038395
-0.000403678
-0.000423522
-0.00044423
-0.000466468
-0.000490299
-0.000515207
-0.000541372
-0.000569116
-0.000598556
-0.000629494
-0.000661876
-0.000695702
-0.000730991
-0.000767661
-0.000805567
-0.00084466
-0.000885151
-0.000927597
-0.00097297
-0.0010228
-0.00107952
-0.00114713
-0.0012324
-0.0013472
-0.00151322
-0.00177245
-0.00221289
-0.000294664
-0.000302977
-0.000317134
-0.000336242
-0.00035874
-0.000384
-0.000410762
-0.000438671
-0.000467343
-0.000495774
-0.000523025
-0.00054875
-0.00057109
-0.000588505
-0.000601547
-0.000611576
-0.000620167
-0.000629034
-0.000639433
-0.00065141
-0.000663946
-0.000675944
-0.000686637
-0.000695565
-0.000702483
-0.000707238
-0.000709723
-0.000709884
-0.000707625
-0.000702684
-0.000694501
-0.000682107
-0.000663944
-0.000637539
-0.000598855
-0.000541101
-0.000452413
-0.000311143
-7.53303e-05
0.000342982
-0.000338862
-0.000343234
-0.00035243
-0.000366217
-0.00038303
-0.0004021
-0.00042212
-0.000442078
-0.000461561
-0.000481303
-0.000500548
-0.000519569
-0.000539433
-0.000559326
-0.000579062
-0.000599367
-0.000620247
-0.000641079
-0.000661672
-0.000682577
-0.000704264
-0.000726776
-0.000750083
-0.000774413
-0.00080008
-0.000827271
-0.000856029
-0.000886317
-0.000918218
-0.000952024
-0.000988327
-0.00102807
-0.00107276
-0.00112482
-0.00118829
-0.00126999
-0.00138185
-0.00154557
-0.00180321
-0.00224285
-0.000422206
-0.000431721
-0.00044986
-0.000475474
-0.000505971
-0.000539786
-0.000574342
-0.000607297
-0.000638012
-0.000665307
-0.00068729
-0.000705946
-0.000721451
-0.000732526
-0.00074138
-0.000749166
-0.000755398
-0.000759619
-0.000762607
-0.000765125
-0.00076694
-0.000767463
-0.000766426
-0.000764013
-0.00076044
-0.000755715
-0.000749674
-0.00074215
-0.000733022
-0.000722069
-0.000708785
-0.000692198
-0.000670721
-0.000641842
-0.000601527
-0.000543022
-0.000454541
-0.000314534
-8.11922e-05
0.000333209
0.00633081
0.00639914
0.00667089
0.00684013
0.00683075
0.0066486
0.0063521
0.00601025
0.00567424
0.00537215
0.00511504
0.00490337
0.00472996
0.00458422
0.00445538
0.00433474
0.0042161
0.004096
0.00397289
0.00384684
0.00371867
0.00358978
0.00346147
0.00333478
0.00321035
0.00308817
0.00296809
0.0028494
0.00273157
0.00261361
0.00249482
0.00237449
0.00225214
0.00212745
0.00199999
0.00186961
0.00173548
0.00159839
0.00145636
0.00130992
0.00115771
0.000998911
0.000835339
0.000659151
0.000474177
0.000268745
3.67834e-05
-0.000230669
-0.000519819
-0.000811664
-0.00112553
-0.00146412
-0.00186706
-0.00236688
-0.00295115
-0.00356286
-0.00420593
-0.00494684
-0.00576158
-0.00652449
-0.00710143
-0.00743761
-0.00746088
-0.00720602
-0.00683404
-0.00636056
-0.00596728
-0.00576622
-0.00556586
-0.00540795
-0.00546384
-0.00554475
-0.00553786
-0.00558796
-0.0057289
-0.00584611
-0.00591684
-0.00600236
-0.00610189
-0.00620056
-0.00628829
-0.00635496
-0.0064161
-0.00646838
-0.00650579
-0.00654896
-0.00659536
-0.00662517
-0.00665386
-0.0066925
-0.00673878
-0.00679217
-0.00685356
-0.00692418
-0.0069978
-0.00707902
-0.00716631
-0.00725849
-0.00735514
-0.00745004
0.00499791
0.00506975
0.00551946
0.00595778
0.00622008
0.00626705
0.00612363
0.00586176
0.00555762
0.00526455
0.00500931
0.00480049
0.00463461
0.00450051
0.00438475
0.00427611
0.00416694
0.00405352
0.00393463
0.00381114
0.00368464
0.00355716
0.00343028
0.00330509
0.00318214
0.00306129
0.00294239
0.00282468
0.00270769
0.00259045
0.00247225
0.0023524
0.0022304
0.00210593
0.00197862
0.00184837
0.00171443
0.00157763
0.00143587
0.0012898
0.00113785
0.000979209
0.000815814
0.000639349
0.000454437
0.000248894
1.77773e-05
-0.000248717
-0.000536343
-0.000826326
-0.00113991
-0.00147796
-0.00187795
-0.0023746
-0.0029556
-0.00356101
-0.00419623
-0.00492892
-0.00573592
-0.00649204
-0.00706361
-0.00740307
-0.00743241
-0.00718181
-0.00681724
-0.00634775
-0.00595446
-0.00575799
-0.00556021
-0.00540056
-0.00545733
-0.00554034
-0.0055327
-0.00558262
-0.00572513
-0.00584314
-0.00591373
-0.00599954
-0.00609986
-0.00619914
-0.00628715
-0.006354
-0.00641543
-0.00646804
-0.0065056
-0.00654888
-0.00659538
-0.00662525
-0.00665396
-0.00669259
-0.00673885
-0.00679223
-0.0068536
-0.00692419
-0.00699778
-0.00707899
-0.00716629
-0.0072585
-0.00735514
-0.00745004
0.00480391
0.00490712
0.00539873
0.00588202
0.00618528
0.00626507
0.00614212
0.00588715
0.00557933
0.00527684
0.00501068
0.004792
0.00461918
0.00448155
0.00436497
0.00425692
0.00414862
0.00403549
0.00391604
0.00379108
0.0036626
0.00353298
0.00340425
0.00327766
0.0031538
0.00303241
0.00291319
0.00279526
0.00267811
0.00256061
0.00244229
0.00232219
0.00220015
0.00207555
0.0019483
0.0018179
0.00168373
0.00154625
0.00140386
0.00125723
0.00110454
0.000945331
0.000780079
0.000602983
0.000415833
0.000209496
-2.04725e-05
-0.000282112
-0.000565381
-0.000854906
-0.00116934
-0.00151088
-0.00190819
-0.00239427
-0.00296196
-0.00355642
-0.00417935
-0.00488929
-0.0056647
-0.00639189
-0.00694817
-0.00728969
-0.00734
-0.00711916
-0.00677908
-0.00633171
-0.0059545
-0.00576155
-0.00556525
-0.00540827
-0.00546261
-0.00554247
-0.00553532
-0.00558484
-0.00572469
-0.00584159
-0.00591273
-0.00599854
-0.00609788
-0.00619661
-0.00628481
-0.00635196
-0.00641358
-0.00646631
-0.00650411
-0.00654763
-0.00659439
-0.00662451
-0.00665345
-0.00669229
-0.00673869
-0.00679213
-0.00685357
-0.00692422
-0.00699787
-0.00707909
-0.00716635
-0.00725853
-0.00735523
-0.00745014
0.00420542
0.00428849
0.00477586
0.00528116
0.00562938
0.00577228
0.00572072
0.00553353
0.00528222
0.00502313
0.00478896
0.00459334
0.00443779
0.00431493
0.00421269
0.00411916
0.00402518
0.00392537
0.0038176
0.00370222
0.00358122
0.00345732
0.00333317
0.00321053
0.00309045
0.00297273
0.0028571
0.00274244
0.00262818
0.00251306
0.00239668
0.0022781
0.00215734
0.00203372
0.00190726
0.00177766
0.00164417
0.00150747
0.0013656
0.00121958
0.00106718
0.00090798
0.000742345
0.000564673
0.00037666
0.000169874
-5.80468e-05
-0.000315208
-0.000595703
-0.000885229
-0.00119997
-0.00154362
-0.00193701
-0.00241018
-0.00296534
-0.00354787
-0.00415427
-0.00483845
-0.00558207
-0.00628228
-0.00681962
-0.00716159
-0.00723592
-0.00704207
-0.00672759
-0.00630505
-0.00593821
-0.00574996
-0.00556172
-0.00540648
-0.00545686
-0.005536
-0.00552969
-0.00557888
-0.00571806
-0.00583431
-0.0059055
-0.00599196
-0.00609192
-0.00619087
-0.00627918
-0.00634665
-0.00640897
-0.00646268
-0.00650122
-0.00654517
-0.00659233
-0.00662298
-0.00665245
-0.00669163
-0.00673824
-0.00679184
-0.00685335
-0.00692406
-0.00699772
-0.00707901
-0.00716635
-0.00725861
-0.00735535
-0.00745022
0.00393618
0.00403786
0.00455037
0.00508383
0.0054611
0.00563258
0.00560726
0.00544192
0.00520709
0.00495933
0.00473238
0.00454104
0.0043881
0.00426746
0.00416798
0.00407787
0.00398767
0.00389145
0.00378662
0.0036732
0.00355314
0.0034293
0.00330471
0.00318151
0.00306105
0.00294326
0.00282782
0.00271341
0.00259931
0.00248411
0.00236741
0.00224836
0.00212699
0.00200291
0.00187594
0.00174606
0.00161221
0.00147535
0.00133299
0.00118671
0.00103342
0.000873761
0.000706566
0.000528003
0.000338793
0.000131194
-9.53953e-05
-0.00035027
-0.000627437
-0.000916388
-0.00123057
-0.00157496
-0.00196499
-0.00242622
-0.00296756
-0.00353662
-0.00412558
-0.00478394
-0.00549497
-0.00616442
-0.00668097
-0.00701928
-0.00711235
-0.0069493
-0.00666547
-0.00627152
-0.00592382
-0.00574303
-0.00556198
-0.00541153
-0.0054577
-0.00553349
-0.00552935
-0.00557853
-0.00571393
-0.00582821
-0.00590007
-0.00598692
-0.0060859
-0.00618402
-0.00627229
-0.0063401
-0.00640295
-0.00645741
-0.00649672
-0.00654118
-0.00658888
-0.00662025
-0.00665046
-0.00669025
-0.0067373
-0.00679118
-0.00685289
-0.00692378
-0.00699764
-0.00707906
-0.00716643
-0.00725871
-0.00735561
-0.00745046
0.00360811
0.00370174
0.0042102
0.00474492
0.00512846
0.00531063
0.0052993
0.00514985
0.00493185
0.00470137
0.00449182
0.00431769
0.00418149
0.00407675
0.00399201
0.00391526
0.00383703
0.00375146
0.00365617
0.00355134
0.00343916
0.00332261
0.00320482
0.00308791
0.00297328
0.00286086
0.00275027
0.00264023
0.00252994
0.00241812
0.00230425
0.00218773
0.00206846
0.0019465
0.00182128
0.00169331
0.00156081
0.00142542
0.00128418
0.00113883
0.000986372
0.000826987
0.000660167
0.00048145
0.000292611
8.50716e-05
-0.000139677
-0.00039081
-0.000664001
-0.000951641
-0.0012647
-0.00160813
-0.00199523
-0.00244343
-0.00296894
-0.00352367
-0.00409449
-0.00472697
-0.00540424
-0.0060434
-0.00653997
-0.00687402
-0.00698823
-0.00685698
-0.00660292
-0.0062393
-0.00590796
-0.00573252
-0.00555966
-0.00541281
-0.00545359
-0.00552691
-0.00552426
-0.00557282
-0.00570604
-0.00581901
-0.00589101
-0.00597839
-0.00607745
-0.00617534
-0.00626362
-0.00633173
-0.00639525
-0.00645093
-0.00649138
-0.0065365
-0.00658477
-0.006617
-0.0066481
-0.00668856
-0.00673609
-0.00679032
-0.00685225
-0.0069233
-0.00699727
-0.00707885
-0.00716638
-0.0072588
-0.00735581
-0.00745061
0.0033764
0.00346982
0.00397737
0.0045077
0.00488484
0.00506088
0.0050467
0.00490062
0.00469335
0.00448019
0.00429299
0.00414383
0.00403265
0.00395023
0.0038834
0.0038198
0.0037507
0.00367148
0.00358091
0.0034803
0.00337252
0.00326081
0.00314804
0.00303605
0.00292572
0.00281686
0.00270884
0.00260063
0.0024914
0.00238038
0.00226692
0.00215083
0.00203168
0.00191003
0.00178491
0.00165719
0.00152462
0.00138915
0.00124766
0.00110207
0.000949244
0.000789104
0.000621789
0.000441853
0.000252861
4.45268e-05
-0.000178727
-0.000427371
-0.000697758
-0.000983908
-0.00129598
-0.00163736
-0.00202124
-0.00245687
-0.00296564
-0.00350594
-0.00405895
-0.0046649
-0.00530895
-0.00591848
-0.00639566
-0.00672503
-0.00685643
-0.00675519
-0.00653174
-0.00619815
-0.00588636
-0.00571888
-0.00555491
-0.0054133
-0.00544981
-0.00552059
-0.00552071
-0.00556969
-0.00569976
-0.0058109
-0.00588343
-0.00597124
-0.00606966
-0.00616689
-0.00625513
-0.00632347
-0.00638751
-0.00644425
-0.00648575
-0.00653148
-0.00658036
-0.00661344
-0.00664544
-0.00668663
-0.0067347
-0.00678931
-0.0068515
-0.0069228
-0.00699702
-0.00707879
-0.00716643
-0.00725892
-0.00735615
-0.00745093
0.00323927
0.0033545
0.00387729
0.00440078
0.00475191
0.00488786
0.00483071
0.00465253
0.00443126
0.00422083
0.00404726
0.00391811
0.0038285
0.00376511
0.00371266
0.0036588
0.00359606
0.00352145
0.00343518
0.00333972
0.00323836
0.00313426
0.00302965
0.00292582
0.00282294
0.00272063
0.00261795
0.00251418
0.00240855
0.0023008
0.00219023
0.00207704
0.00196055
0.00184155
0.00171883
0.00159338
0.00146299
0.00132905
0.00118938
0.00104474
0.000893593
0.000733877
0.000567722
0.000388119
0.000200137
-7.0191e-06
-0.000228481
-0.000473198
-0.000740144
-0.00102306
-0.00133314
-0.00167061
-0.0020499
-0.00247324
-0.00296361
-0.00348866
-0.00402279
-0.00460183
-0.005213
-0.00579326
-0.00625181
-0.00657448
-0.00672139
-0.00665096
-0.00645883
-0.0061571
-0.00586532
-0.00570533
-0.00555038
-0.005414
-0.005446
-0.00551439
-0.0055164
-0.00556464
-0.00569157
-0.00580116
-0.00587401
-0.00596225
-0.00606024
-0.00615692
-0.00624519
-0.00631393
-0.00637866
-0.00643661
-0.00647934
-0.0065258
-0.00657534
-0.00660943
-0.00664248
-0.00668448
-0.00673314
-0.00678819
-0.00685068
-0.00692219
-0.00699656
-0.00707854
-0.00716638
-0.00725899
-0.00735636
-0.0074511
0.00304486
0.00309814
0.00354841
0.00400835
0.00431943
0.00444702
0.00441401
0.00428259
0.00411677
0.00395964
0.00383108
0.0037354
0.00366613
0.00361161
0.00356083
0.00350656
0.00344484
0.00337454
0.00329617
0.00321152
0.0031224
0.00303064
0.00293722
0.00284287
0.00274746
0.00265086
0.00255241
0.00245194
0.00234897
0.00224359
0.00213523
0.0020241
0.00190955
0.00179218
0.00167095
0.00154658
0.00141737
0.00128394
0.00114499
0.00100027
0.000849792
0.000689707
0.000523803
0.000343864
0.000156032
-5.03767e-05
-0.00027102
-0.000512292
-0.000776848
-0.00105667
-0.00136475
-0.00169807
-0.00207187
-0.00248419
-0.00295572
-0.00346429
-0.00398013
-0.00453263
-0.00511162
-0.00566335
-0.00610342
-0.00641933
-0.00657972
-0.00653875
-0.0063781
-0.006108
-0.00583739
-0.00568668
-0.0055417
-0.00541172
-0.00543986
-0.0055055
-0.0055102
-0.00555882
-0.00568296
-0.00579097
-0.00586416
-0.00595289
-0.00605063
-0.00614686
-0.00623521
-0.00630424
-0.00636953
-0.00642875
-0.00647279
-0.00651999
-0.00657023
-0.00660532
-0.00663939
-0.00668222
-0.0067315
-0.00678699
-0.00684978
-0.00692156
-0.00699623
-0.00707841
-0.0071664
-0.00725912
-0.00735673
-0.00745148
0.00492097
0.00483916
0.00434977
0.00384236
0.00347729
0.00328992
0.00325876