/*--------------------------------*- C++ -*----------------------------------*\
| =========                 |                                                 |
| \\      /  F ield         | OpenFOAM: The Open Source CFD Toolbox           |
|  \\    /   O peration     | Version:  2312                                  |
|   \\  /    A nd           | Website:  www.openfoam.com                      |
|    \\/     M anipulation  |                                                 |
\*---------------------------------------------------------------------------*/
FoamFile
{
    version     2.0;
    format      ascii;
    arch        "LSB;label=32;scalar=64";
    class       surfaceScalarField;
    location    "0.45";
    object      phi;
}
// * * * * * * * * * * * * * * * * * * * * * * * * * * * * * * * * * * * * * //

dimensions      [0 3 -1 0 0 0 0];

oriented        oriented;

internalField   nonuniform List<scalar> 
11020
(
3.87738e-06
-6.44045e-08
3.87758e-06
4.6626e-08
3.87816e-06
-5.07686e-08
3.87799e-06
4.15814e-08
3.87707e-06
-1.7234e-08
3.87664e-06
3.45847e-08
3.87625e-06
-2.24588e-08
3.87734e-06
4.67646e-09
3.87749e-06
-2.73325e-08
3.87811e-06
1.85369e-09
3.87737e-06
-8.9042e-09
3.87749e-06
1.0781e-08
3.8764e-06
1.67396e-09
3.87599e-06
1.57744e-08
3.87472e-06
7.5555e-09
3.87402e-06
1.4629e-08
3.87269e-06
8.12375e-09
3.87213e-06
1.00946e-08
3.87119e-06
4.20513e-09
3.8709e-06
4.86246e-09
3.87027e-06
-2.74017e-10
3.8701e-06
3.33977e-10
3.86953e-06
-3.18241e-09
3.8692e-06
-1.9359e-09
3.86856e-06
-3.61433e-09
3.86809e-06
-1.89263e-09
3.86739e-06
-2.36417e-09
3.86684e-06
-5.4295e-10
3.8661e-06
-5.65306e-10
3.86538e-06
9.08607e-10
3.86446e-06
1.02369e-09
3.86341e-06
2.31391e-09
3.86211e-06
2.76077e-09
3.86062e-06
4.18145e-09
3.85889e-06
4.93961e-09
3.85697e-06
6.31324e-09
3.85482e-06
7.13396e-09
3.85242e-06
8.57136e-09
3.84973e-06
9.84374e-09
1.17195e-08
3.84677e-06
4.18285e-06
-6.1392e-08
4.18771e-06
4.17613e-08
4.1844e-06
-4.74544e-08
4.18826e-06
3.77214e-08
4.18426e-06
-1.32313e-08
4.18731e-06
3.15262e-08
4.18381e-06
-1.89504e-08
4.18757e-06
9.11119e-10
4.18517e-06
-2.49285e-08
4.18723e-06
-2.08471e-10
4.18459e-06
-6.26712e-09
4.18672e-06
8.64892e-09
4.18413e-06
4.26627e-09
4.18542e-06
1.44864e-08
4.18318e-06
9.79075e-09
4.18342e-06
1.43967e-08
4.1814e-06
1.01415e-08
4.18142e-06
1.00774e-08
4.17992e-06
5.69648e-09
4.18003e-06
4.75754e-09
4.17892e-06
8.31973e-10
4.17897e-06
2.87114e-10
4.17796e-06
-2.17636e-09
4.17778e-06
-1.74858e-09
4.17677e-06
-2.60817e-09
4.17634e-06
-1.46448e-09
4.17531e-06
-1.33543e-09
4.17468e-06
8.68034e-11
4.17356e-06
5.59839e-10
4.17265e-06
1.8186e-09
4.17127e-06
2.40092e-09
4.16997e-06
3.61377e-09
4.16836e-06
4.37098e-09
4.16696e-06
5.58139e-09
4.1655e-06
6.40384e-09
4.16428e-06
7.53024e-09
4.16307e-06
8.34461e-09
4.1622e-06
9.44082e-09
4.16165e-06
1.03906e-08
1.15582e-08
4.16181e-06
4.51651e-06
-5.78365e-08
4.5207e-06
3.75663e-08
4.51686e-06
-4.36086e-08
4.52032e-06
3.42581e-08
4.51714e-06
-1.00513e-08
4.52013e-06
2.85354e-08
4.5168e-06
-1.56198e-08
4.5195e-06
-1.78883e-09
4.51697e-06
-2.24032e-08
4.51795e-06
-1.18594e-09
4.51545e-06
-3.76959e-09
4.51721e-06
6.8921e-09
4.51539e-06
6.08756e-09
4.51664e-06
1.32405e-08
4.51531e-06
1.11167e-08
4.51554e-06
1.41665e-08
4.51408e-06
1.15966e-08
4.51397e-06
1.01947e-08
4.51273e-06
6.93011e-09
4.51266e-06
4.82928e-09
4.51161e-06
1.88783e-09
4.51136e-06
5.3602e-10
4.51023e-06
-1.04738e-09
4.50969e-06
-1.21257e-09
4.5085e-06
-1.41591e-09
4.50776e-06
-7.2054e-10
4.50655e-06
-1.31224e-10
4.50569e-06
9.43679e-10
4.50449e-06
1.76961e-09
4.50339e-06
2.91483e-09
4.50188e-06
3.90558e-09
4.5004e-06
5.09911e-09
4.49871e-06
6.06322e-09
4.49725e-06
7.03434e-09
4.49585e-06
7.81129e-09
4.49471e-06
8.66392e-09
4.49363e-06
9.42769e-09
4.49282e-06
1.02495e-08
4.49225e-06
1.09578e-08
1.1617e-08
4.49219e-06
4.8779e-06
-5.4788e-08
4.88097e-06
3.44973e-08
4.87722e-06
-3.98603e-08
4.88017e-06
3.13065e-08
4.87777e-06
-7.64679e-09
4.88073e-06
2.55735e-08
4.87774e-06
-1.26292e-08
4.87926e-06
-3.31522e-09
4.87645e-06
-1.95923e-08
4.87698e-06
-1.71193e-09
4.87463e-06
-1.41671e-09
4.87563e-06
5.89144e-09
4.87445e-06
7.264e-09
4.8753e-06
1.23924e-08
4.87498e-06
1.14366e-08
4.87524e-06
1.39069e-08
4.87471e-06
1.21289e-08
4.87433e-06
1.05698e-08
4.8736e-06
7.66661e-09
4.87308e-06
5.34776e-09
4.87215e-06
2.8094e-09
4.87133e-06
1.36402e-09
4.87019e-06
9.23367e-11
4.86911e-06
-1.35643e-10
4.86786e-06
-1.70286e-10
4.86665e-06
4.97303e-10
4.86532e-06
1.19904e-09
4.86395e-06
2.30686e-09
4.86242e-06
3.30327e-09
4.86091e-06
4.42734e-09
4.85934e-06
5.4707e-09
4.85789e-06
6.54943e-09
4.85651e-06
7.44991e-09
4.85526e-06
8.27501e-09
4.85412e-06
8.95192e-09
4.85319e-06
9.59866e-09
4.85246e-06
1.0159e-08
4.85203e-06
1.06805e-08
4.85189e-06
1.109e-08
1.13892e-08
4.85212e-06
5.26769e-06
-5.18276e-08
5.27053e-06
3.16584e-08
5.26659e-06
-3.59248e-08
5.26966e-06
2.82358e-08
5.26736e-06
-5.34333e-09
5.27053e-06
2.23965e-08
5.26757e-06
-9.66509e-09
5.26863e-06
-4.37973e-09
5.2653e-06
-1.62573e-08
5.26596e-06
-2.37171e-09
5.26383e-06
7.14549e-10
5.26443e-06
5.29318e-09
5.26327e-06
8.42078e-09
5.2639e-06
1.1758e-08
5.26377e-06
1.15694e-08
5.26428e-06
1.33934e-08
5.26403e-06
1.23858e-08
5.2638e-06
1.07969e-08
5.26317e-06
8.30185e-09
5.2626e-06
5.91094e-09
5.2616e-06
3.807e-09
5.26059e-06
2.38275e-09
5.25924e-06
1.43589e-09
5.25795e-06
1.15965e-09
5.25647e-06
1.30199e-09
5.25508e-06
1.89345e-09
5.2536e-06
2.67311e-09
5.2522e-06
3.70727e-09
5.25062e-06
4.88618e-09
5.24898e-06
6.06907e-09
5.24728e-06
7.17191e-09
5.24578e-06
8.046e-09
5.24443e-06
8.79669e-09
5.24331e-06
9.40011e-09
5.24231e-06
9.95299e-09
5.24152e-06
1.03902e-08
5.2409e-06
1.07779e-08
5.24052e-06
1.10546e-08
5.24039e-06
1.12281e-08
1.1297e-08
5.24048e-06
5.68838e-06
-4.87455e-08
5.69131e-06
2.87283e-08
5.68716e-06
-3.17742e-08
5.69037e-06
2.50192e-08
5.68807e-06
-3.03772e-09
5.69127e-06
1.9199e-08
5.68839e-06
-6.78591e-09
5.68914e-06
-5.13395e-09
5.68575e-06
-1.28687e-08
5.68609e-06
-2.71317e-09
5.68462e-06
2.18826e-09
5.68471e-06
5.19785e-09
5.68405e-06
9.082e-09
5.68417e-06
1.16397e-08
5.68398e-06
1.17622e-08
5.68437e-06
1.30001e-08
5.68434e-06
1.24208e-08
5.68412e-06
1.10111e-08
5.68359e-06
8.83203e-09
5.68291e-06
6.59172e-09
5.6819e-06
4.81954e-09
5.68075e-06
3.53124e-09
5.67933e-06
2.85837e-09
5.6779e-06
2.58612e-09
5.67632e-06
2.8814e-09
5.67477e-06
3.4491e-09
5.67306e-06
4.37776e-09
5.67136e-06
5.40771e-09
5.66961e-06
6.63633e-09
5.66803e-06
7.65403e-09
5.66656e-06
8.64007e-09
5.66526e-06
9.34925e-09
5.66403e-06
1.00208e-08
5.66295e-06
1.0478e-08
5.66202e-06
1.08854e-08
5.66128e-06
1.11312e-08
5.66076e-06
1.12953e-08
5.6605e-06
1.13218e-08
5.66047e-06
1.12506e-08
1.10684e-08
5.6607e-06
6.14261e-06
-4.54828e-08
6.14572e-06
2.56208e-08
6.14135e-06
-2.74092e-08
6.1447e-06
2.16692e-08
6.14231e-06
-6.42938e-10
6.14553e-06
1.59787e-08
6.14264e-06
-3.8981e-09
6.14326e-06
-5.758e-09
6.13992e-06
-9.53105e-09
6.14001e-06
-2.79711e-09
6.13886e-06
3.33833e-09
6.13874e-06
5.31373e-09
6.13816e-06
9.6638e-09
6.13822e-06
1.15791e-08
6.13787e-06
1.21132e-08
6.1381e-06
1.27714e-08
6.13806e-06
1.24626e-08
6.13788e-06
1.11925e-08
6.13733e-06
9.37281e-09
6.13663e-06
7.30126e-09
6.13554e-06
5.90507e-09
6.13437e-06
4.6995e-09
6.13288e-06
4.35187e-09
6.1314e-06
4.06734e-09
6.12972e-06
4.55893e-09
6.12806e-06
5.1098e-09
6.1262e-06
6.23276e-09
6.12442e-06
7.18971e-09
6.12268e-06
8.3809e-09
6.12118e-06
9.15516e-09
6.11978e-06
1.0033e-08
6.11855e-06
1.05804e-08
6.11741e-06
1.11608e-08
6.11637e-06
1.15179e-08
6.11546e-06
1.17953e-08
6.11472e-06
1.18691e-08
6.11418e-06
1.18356e-08
6.11386e-06
1.16406e-08
6.11379e-06
1.13248e-08
1.08004e-08
6.11406e-06
6.63313e-06
-4.20486e-08
6.63639e-06
2.23605e-08
6.6319e-06
-2.29191e-08
6.63525e-06
1.83215e-08
6.6329e-06
1.70041e-09
6.63593e-06
1.29543e-08
6.63324e-06
-1.21542e-09
6.63352e-06
-6.03913e-09
6.63057e-06
-6.57961e-09
6.63022e-06
-2.44065e-09
6.62934e-06
4.21611e-09
6.62909e-06
5.5673e-09
6.62838e-06
1.0368e-08
6.62854e-06
1.14231e-08
6.62808e-06
1.25719e-08
6.62822e-06
1.26269e-08
6.62801e-06
1.26795e-08
6.62787e-06
1.13299e-08
6.62718e-06
1.00596e-08
6.62653e-06
7.95609e-09
6.62528e-06
7.14792e-09
6.62416e-06
5.82082e-09
6.62259e-06
5.92364e-09
6.62113e-06
5.53038e-09
6.61929e-06
6.40177e-09
6.61747e-06
6.92484e-09
6.61552e-06
8.18568e-09
6.61381e-06
8.89857e-09
6.6122e-06
9.99066e-09
6.61081e-06
1.05419e-08
6.60949e-06
1.13554e-08
6.6083e-06
1.17662e-08
6.60716e-06
1.22998e-08
6.60616e-06
1.25181e-08
6.60525e-06
1.2713e-08
6.60449e-06
1.26246e-08
6.60388e-06
1.24441e-08
6.60347e-06
1.20581e-08
6.60307e-06
1.17216e-08
1.10183e-08
6.60285e-06
7.16283e-06
-3.84457e-08
7.16623e-06
1.89564e-08
7.16164e-06
-1.83288e-08
7.16498e-06
1.49841e-08
7.16265e-06
4.02465e-09
7.16548e-06
1.01239e-08
7.163e-06
1.26903e-09
7.16294e-06
-5.97892e-09
7.16045e-06
-4.09081e-09
7.15971e-06
-1.69915e-09
7.1589e-06
5.02641e-09
7.15855e-06
5.91236e-09
7.15793e-06
1.09876e-08
7.15796e-06
1.13945e-08
7.15752e-06
1.30142e-08
7.15749e-06
1.26535e-08
7.1572e-06
1.29718e-08
7.15697e-06
1.15578e-08
7.15623e-06
1.08082e-08
7.15552e-06
8.65977e-09
7.15421e-06
8.46232e-09
7.15297e-06
7.05994e-09
7.15127e-06
7.62045e-09
7.14949e-06
7.30998e-09
7.14747e-06
8.42025e-09
7.14565e-06
8.74905e-09
7.14397e-06
9.86421e-09
7.14254e-06
1.03262e-08
7.14122e-06
1.13181e-08
7.13996e-06
1.17994e-08
7.13871e-06
1.2599e-08
7.1375e-06
1.29836e-08
7.13626e-06
1.35381e-08
7.13505e-06
1.37298e-08
7.13386e-06
1.3904e-08
7.13272e-06
1.37599e-08
7.13164e-06
1.35212e-08
7.13078e-06
1.29231e-08
7.13066e-06
1.18443e-08
1.03512e-08
7.13132e-06
7.73487e-06
-3.47106e-08
7.73835e-06
1.54749e-08
7.73378e-06
-1.37546e-08
7.73691e-06
1.18478e-08
7.73487e-06
6.06639e-09
7.73713e-06
7.86854e-09
7.73543e-06
2.96711e-09
7.73411e-06
-4.66094e-09
7.73287e-06
-2.85552e-09
7.73149e-06
-3.15306e-10
7.73094e-06
5.58179e-09
7.73015e-06
6.69798e-09
7.7299e-06
1.12377e-08
7.72954e-06
1.17586e-08
7.72936e-06
1.31863e-08
7.72895e-06
1.30675e-08
7.7288e-06
1.31184e-08
7.72827e-06
1.20923e-08
7.72762e-06
1.14532e-08
7.72665e-06
9.62886e-09
7.72545e-06
9.6622e-09
7.72386e-06
8.65251e-09
7.72217e-06
9.31199e-09
7.72016e-06
9.32444e-09
7.71836e-06
1.02114e-08
7.71662e-06
1.04946e-08
7.71513e-06
1.13519e-08
7.71366e-06
1.18019e-08
7.71243e-06
1.25395e-08
7.71135e-06
1.28864e-08
7.7106e-06
1.33417e-08
7.71019e-06
1.33957e-08
7.71025e-06
1.34858e-08
7.71063e-06
1.33429e-08
7.71135e-06
1.31819e-08
7.71222e-06
1.28965e-08
7.71318e-06
1.25608e-08
7.714e-06
1.21019e-08
7.71417e-06
1.16733e-08
1.08655e-08
7.71366e-06
8.35262e-06
-3.08711e-08
8.35613e-06
1.19626e-08
8.35165e-06
-9.26965e-09
8.35451e-06
8.98723e-09
8.35282e-06
7.7587e-09
8.35435e-06
6.33793e-09
8.35379e-06
3.52575e-09
8.35154e-06
-2.41355e-09
8.35049e-06
-1.80199e-09
8.34888e-06
1.29689e-09
8.34848e-06
5.97269e-09
8.34749e-06
7.68905e-09
8.34736e-06
1.13718e-08
8.34682e-06
1.22997e-08
8.34672e-06
1.32872e-08
8.34614e-06
1.36477e-08
8.34596e-06
1.3293e-08
8.34528e-06
1.27716e-08
8.34458e-06
1.21513e-08
8.34338e-06
1.08321e-08
8.34206e-06
1.09851e-08
8.34015e-06
1.05659e-08
8.33848e-06
1.09809e-08
8.33662e-06
1.11761e-08
8.3351e-06
1.17354e-08
8.3335e-06
1.20932e-08
8.33219e-06
1.26656e-08
8.33088e-06
1.31065e-08
8.32988e-06
1.35411e-08
8.32903e-06
1.37357e-08
8.32863e-06
1.37468e-08
8.32841e-06
1.36131e-08
8.3285e-06
1.33976e-08
8.32864e-06
1.31988e-08
8.32891e-06
1.29191e-08
8.32921e-06
1.25933e-08
8.32959e-06
1.21764e-08
8.33e-06
1.16963e-08
8.33057e-06
1.11008e-08
1.03699e-08
8.33107e-06
9.01977e-06
-2.69929e-08
9.02321e-06
8.52267e-09
9.01899e-06
-5.04842e-09
9.02129e-06
6.68335e-09
9.02027e-06
8.78261e-09
9.02052e-06
6.08475e-09
9.02059e-06
3.45381e-09
9.01888e-06
-7.04415e-10
9.01739e-06
-3.13026e-10
9.01601e-06
2.68492e-09
9.01536e-06
6.61492e-09
9.01449e-06
8.56808e-09
9.01411e-06
1.17511e-08
9.01362e-06
1.27862e-08
9.01332e-06
1.35896e-08
9.01281e-06
1.41592e-08
9.01235e-06
1.37516e-08
9.01167e-06
1.34517e-08
9.01072e-06
1.30982e-08
9.00932e-06
1.22285e-08
9.00785e-06
1.24594e-08
9.00605e-06
1.23692e-08
9.00446e-06
1.25626e-08
9.00285e-06
1.27871e-08
9.00138e-06
1.32088e-08
8.99996e-06
1.3511e-08
8.99873e-06
1.38956e-08
8.99773e-06
1.41107e-08
8.99709e-06
1.41766e-08
8.99671e-06
1.41203e-08
8.99649e-06
1.39659e-08
8.99636e-06
1.37381e-08
8.99626e-06
1.34962e-08
8.99622e-06
1.32441e-08
8.99624e-06
1.28988e-08
8.99634e-06
1.24894e-08
8.99647e-06
1.20479e-08
8.99659e-06
1.15743e-08
8.99665e-06
1.10446e-08
1.05683e-08
8.99645e-06
9.74024e-06
-2.31292e-08
9.74351e-06
5.25492e-09
9.73979e-06
-1.33658e-09
9.74132e-06
5.1596e-09
9.74138e-06
8.71881e-09
9.74078e-06
6.68394e-09
9.74053e-06
3.70674e-09
9.73918e-06
6.46176e-10
9.73767e-06
1.19795e-09
9.73626e-06
4.09189e-09
9.7355e-06
7.37592e-09
9.73464e-06
9.43182e-09
9.73413e-06
1.22551e-08
9.73361e-06
1.33091e-08
9.73318e-06
1.40245e-08
9.73263e-06
1.47093e-08
9.73197e-06
1.44101e-08
9.73109e-06
1.43277e-08
9.72994e-06
1.42524e-08
9.72839e-06
1.37792e-08
9.72693e-06
1.39142e-08
9.72539e-06
1.39126e-08
9.72389e-06
1.40609e-08
9.72256e-06
1.41197e-08
9.72138e-06
1.43879e-08
9.7204e-06
1.44861e-08
9.71962e-06
1.46825e-08
9.71901e-06
1.47181e-08
9.71839e-06
1.47994e-08
9.71786e-06
1.46463e-08
9.71741e-06
1.44156e-08
9.71704e-06
1.411e-08
9.71676e-06
1.37708e-08
9.71663e-06
1.33806e-08
9.71654e-06
1.29839e-08
9.71647e-06
1.25648e-08
9.71642e-06
1.20936e-08
9.71636e-06
1.16303e-08
9.71631e-06
1.10996e-08
1.05739e-08
9.7163e-06
1.05183e-05
-1.93922e-08
1.05213e-05
2.31604e-09
1.05191e-05
8.42359e-10
1.0519e-05
5.22945e-09
1.05193e-05
8.45665e-09
1.05187e-05
7.25225e-09
1.0518e-05
4.40741e-09
1.05167e-05
1.94433e-09
1.05154e-05
2.49811e-09
1.05141e-05
5.44072e-09
1.05132e-05
8.26008e-09
1.05123e-05
1.03271e-08
1.05117e-05
1.28575e-08
1.05111e-05
1.38945e-08
1.05106e-05
1.45793e-08
1.05099e-05
1.54131e-08
1.0509e-05
1.52566e-08
1.05079e-05
1.54203e-08
1.05067e-05
1.54541e-08
1.05053e-05
1.52177e-08
1.05039e-05
1.52737e-08
1.05026e-05
1.52489e-08
1.05012e-05
1.54684e-08
1.04998e-05
1.54639e-08
1.04985e-05
1.57051e-08
1.04973e-05
1.56783e-08
1.04963e-05
1.56928e-08
1.04956e-05
1.53954e-08
1.04953e-05
1.51236e-08
1.04951e-05
1.48138e-08
1.0495e-05
1.45303e-08
1.04949e-05
1.42507e-08
1.04947e-05
1.39485e-08
1.04945e-05
1.35845e-08
1.04944e-05
1.31327e-08
1.04942e-05
1.2678e-08
1.04942e-05
1.21652e-08
1.04941e-05
1.16481e-08
1.04942e-05
1.10941e-08
1.05647e-08
1.04942e-05
1.13586e-05
-1.58304e-08
1.13611e-05
-2.20511e-10
1.13597e-05
2.2659e-09
1.13591e-05
5.89411e-09
1.13591e-05
8.43537e-09
1.13588e-05
7.51948e-09
1.13579e-05
5.28471e-09
1.13565e-05
3.33269e-09
1.13552e-05
3.83163e-09
1.1354e-05
6.66357e-09
1.1353e-05
9.2348e-09
1.13521e-05
1.12102e-08
1.13514e-05
1.36147e-08
1.13507e-05
1.45633e-08
1.135e-05
1.53068e-08
1.13491e-05
1.63032e-08
1.13481e-05
1.62008e-08
1.1347e-05
1.65497e-08
1.13458e-05
1.66712e-08
1.13446e-05
1.64652e-08
1.13432e-05
1.66211e-08
1.1342e-05
1.64962e-08
1.13407e-05
1.67216e-08
1.13396e-05
1.65978e-08
1.13386e-05
1.66272e-08
1.13379e-05
1.64292e-08
1.13373e-05
1.62489e-08
1.13368e-05
1.59513e-08
1.13363e-05
1.56294e-08
1.13358e-05
1.53313e-08
1.13353e-05
1.49479e-08
1.1335e-05
1.45966e-08
1.13348e-05
1.41719e-08
1.13346e-05
1.37569e-08
1.13345e-05
1.32547e-08
1.13344e-05
1.27575e-08
1.13344e-05
1.21956e-08
1.13344e-05
1.16495e-08
1.13344e-05
1.10655e-08
1.04823e-08
1.13345e-05
1.2266e-05
-1.25367e-08
1.22681e-05
-2.26388e-09
1.22671e-05
3.22016e-09
1.22663e-05
6.67672e-09
1.22661e-05
8.6531e-09
1.22658e-05
7.8277e-09
1.2265e-05
6.13786e-09
1.22635e-05
4.77792e-09
1.22621e-05
5.24092e-09
1.22609e-05
7.85161e-09
1.22599e-05
1.02353e-08
1.2259e-05
1.21149e-08
1.22582e-05
1.44717e-08
1.22574e-05
1.53592e-08
1.22565e-05
1.61671e-08
1.22555e-05
1.73095e-08
1.22545e-05
1.72504e-08
1.22534e-05
1.76025e-08
1.22522e-05
1.79019e-08
1.2251e-05
1.76058e-08
1.22498e-05
1.78104e-08
1.22487e-05
1.75884e-08
1.22478e-05
1.76931e-08
1.22469e-05
1.75153e-08
1.22461e-05
1.74023e-08
1.22453e-05
1.71865e-08
1.22447e-05
1.68909e-08
1.22441e-05
1.65725e-08
1.22435e-05
1.61487e-08
1.22431e-05
1.57899e-08
1.22427e-05
1.5326e-08
1.22424e-05
1.49157e-08
1.22422e-05
1.43897e-08
1.2242e-05
1.39152e-08
1.22419e-05
1.33514e-08
1.22419e-05
1.28131e-08
1.22418e-05
1.2215e-08
1.22418e-05
1.16452e-08
1.22419e-05
1.1044e-08
1.04548e-08
1.22419e-05
1.3246e-05
-9.56844e-09
1.32474e-05
-3.74724e-09
1.32469e-05
3.776e-09
1.32462e-05
7.4132e-09
1.32458e-05
9.03554e-09
1.32453e-05
8.34354e-09
1.32444e-05
7.01866e-09
1.3243e-05
6.1726e-09
1.32415e-05
6.67787e-09
1.32403e-05
9.10644e-09
1.32393e-05
1.12693e-08
1.32383e-05
1.30279e-08
1.32374e-05
1.53943e-08
1.32365e-05
1.63006e-08
1.32355e-05
1.71403e-08
1.32345e-05
1.83448e-08
1.32333e-05
1.83722e-08
1.32324e-05
1.85859e-08
1.32312e-05
1.90243e-08
1.32301e-05
1.87179e-08
1.32291e-05
1.88341e-08
1.3228e-05
1.86674e-08
1.32271e-05
1.86212e-08
1.32262e-05
1.84414e-08
1.32254e-05
1.81373e-08
1.32248e-05
1.78356e-08
1.32243e-05
1.74007e-08
1.32238e-05
1.70698e-08
1.32233e-05
1.65907e-08
1.32229e-05
1.61784e-08
1.32226e-05
1.56383e-08
1.32224e-05
1.51579e-08
1.32222e-05
1.45838e-08
1.32221e-05
1.40404e-08
1.3222e-05
1.34308e-08
1.3222e-05
1.2843e-08
1.3222e-05
1.2218e-08
1.3222e-05
1.16159e-08
1.3222e-05
1.09999e-08
1.03919e-08
1.32221e-05
1.43042e-05
-7.01775e-09
1.43049e-05
-4.45602e-09
1.43048e-05
3.89623e-09
1.43042e-05
7.98855e-09
1.43037e-05
9.52495e-09
1.4303e-05
9.0186e-09
1.4302e-05
8.04386e-09
1.43006e-05
7.58651e-09
1.42992e-05
8.08347e-09
1.42979e-05
1.03676e-08
1.42968e-05
1.24001e-08
1.42958e-05
1.39926e-08
1.42949e-05
1.63551e-08
1.42938e-05
1.7329e-08
1.42928e-05
1.81932e-08
1.42918e-05
1.93466e-08
1.42907e-05
1.94863e-08
1.42897e-05
1.95963e-08
1.42887e-05
1.99928e-08
1.42876e-05
1.98146e-08
1.42867e-05
1.97333e-08
1.42858e-05
1.96147e-08
1.4285e-05
1.94047e-08
1.42842e-05
1.91947e-08
1.42835e-05
1.88088e-08
1.42829e-05
1.84617e-08
1.42824e-05
1.79557e-08
1.42819e-05
1.75184e-08
1.42815e-05
1.69836e-08
1.42812e-05
1.64801e-08
1.4281e-05
1.59056e-08
1.42808e-05
1.53424e-08
1.42806e-05
1.47277e-08
1.42805e-05
1.41172e-08
1.42805e-05
1.34774e-08
1.42805e-05
1.28418e-08
1.42805e-05
1.21975e-08
1.42806e-05
1.15642e-08
1.42806e-05
1.0938e-08
1.031e-08
1.42807e-05
1.54469e-05
-4.92891e-09
1.54462e-05
-3.74107e-09
1.54469e-05
3.19403e-09
1.54467e-05
8.163e-09
1.54462e-05
1.00783e-08
1.54453e-05
9.85936e-09
1.54442e-05
9.17716e-09
1.54427e-05
9.04652e-09
1.54413e-05
9.53743e-09
1.544e-05
1.16541e-08
1.54388e-05
1.36182e-08
1.54378e-05
1.50129e-08
1.54367e-05
1.73876e-08
1.54356e-05
1.84025e-08
1.54346e-05
1.92286e-08
1.54337e-05
2.02797e-08
1.54327e-05
2.04802e-08
1.54316e-05
2.0655e-08
1.54308e-05
2.08699e-08
1.54297e-05
2.08236e-08
1.54289e-05
2.06029e-08
1.5428e-05
2.04404e-08
1.54273e-05
2.01653e-08
1.54266e-05
1.9856e-08
1.5426e-05
1.942e-08
1.54255e-05
1.89464e-08
1.54251e-05
1.84097e-08
1.54247e-05
1.78686e-08
1.54244e-05
1.72963e-08
1.54242e-05
1.67122e-08
1.5424e-05
1.61017e-08
1.54239e-05
1.54657e-08
1.54238e-05
1.48137e-08
1.54237e-05
1.41481e-08
1.54237e-05
1.34798e-08
1.54238e-05
1.28086e-08
1.54238e-05
1.2145e-08
1.54239e-05
1.14897e-08
1.5424e-05
1.08512e-08
1.02122e-08
1.54241e-05
1.66808e-05
-3.29192e-09
1.66796e-05
-2.54646e-09
1.66802e-05
2.60388e-09
1.66803e-05
8.09729e-09
1.66798e-05
1.05765e-08
1.66789e-05
1.07643e-08
1.66777e-05
1.03952e-08
1.66761e-05
1.05779e-08
1.66746e-05
1.10794e-08
1.66733e-05
1.29908e-08
1.66719e-05
1.49277e-08
1.66709e-05
1.61002e-08
1.66698e-05
1.84233e-08
1.66688e-05
1.9456e-08
1.66678e-05
2.02047e-08
1.66669e-05
2.12181e-08
1.6666e-05
2.13373e-08
1.6665e-05
2.16542e-08
1.66641e-05
2.17413e-08
1.66633e-05
2.16933e-08
1.66624e-05
2.1448e-08
1.66617e-05
2.11414e-08
1.6661e-05
2.08451e-08
1.66605e-05
2.03931e-08
1.666e-05
1.99279e-08
1.66596e-05
1.934e-08
1.66592e-05
1.87663e-08
1.6659e-05
1.8138e-08
1.66587e-05
1.75234e-08
1.66586e-05
1.68751e-08
1.66585e-05
1.62178e-08
1.66584e-05
1.55341e-08
1.66584e-05
1.48388e-08
1.66584e-05
1.41383e-08
1.66584e-05
1.34358e-08
1.66585e-05
1.27439e-08
1.66586e-05
1.20576e-08
1.66587e-05
1.13918e-08
1.66588e-05
1.0739e-08
1.00963e-08
1.66589e-05
1.80131e-05
-1.95881e-09
1.80119e-05
-1.39265e-09
1.80117e-05
2.77721e-09
1.80121e-05
7.78255e-09
1.80118e-05
1.08168e-08
1.8011e-05
1.16235e-08
1.80097e-05
1.16743e-08
1.80081e-05
1.21475e-08
1.80065e-05
1.27261e-08
1.80051e-05
1.43879e-08
1.80037e-05
1.63048e-08
1.80026e-05
1.7235e-08
1.80016e-05
1.93794e-08
1.80005e-05
2.05035e-08
1.79997e-05
2.10973e-08
1.79987e-05
2.21633e-08
1.79979e-05
2.2153e-08
1.79971e-05
2.2494e-08
1.79962e-05
2.26124e-08
1.79954e-05
2.24329e-08
1.79947e-05
2.22264e-08
1.7994e-05
2.1758e-08
1.79935e-05
2.14246e-08
1.7993e-05
2.08319e-08
1.79927e-05
2.02919e-08
1.79924e-05
1.96314e-08
1.79921e-05
1.9005e-08
1.79919e-05
1.83344e-08
1.79918e-05
1.76571e-08
1.79917e-05
1.697e-08
1.79917e-05
1.62535e-08
1.79917e-05
1.55433e-08
1.79917e-05
1.48023e-08
1.79918e-05
1.40837e-08
1.79918e-05
1.33471e-08
1.79919e-05
1.26441e-08
1.79921e-05
1.1936e-08
1.79922e-05
1.12663e-08
1.79923e-05
1.06012e-08
9.95874e-09
1.79925e-05
1.94517e-05
-9.25044e-10
1.94505e-05
-2.31767e-10
1.94498e-05
3.42642e-09
1.94501e-05
7.54849e-09
1.945e-05
1.08446e-08
1.94493e-05
1.23587e-08
1.94481e-05
1.2932e-08
1.94465e-05
1.37097e-08
1.94448e-05
1.43966e-08
1.94434e-05
1.58115e-08
1.9442e-05
1.76913e-08
1.94408e-05
1.84676e-08
1.94399e-05
2.02871e-08
1.94389e-05
2.15088e-08
1.9438e-05
2.19271e-08
1.94372e-05
2.30294e-08
1.94363e-05
2.30172e-08
1.94356e-05
2.31667e-08
1.94348e-05
2.33962e-08
1.94342e-05
2.30863e-08
1.94336e-05
2.28515e-08
1.94331e-05
2.22711e-08
1.94326e-05
2.18423e-08
1.94323e-05
2.11891e-08
1.9432e-05
2.05454e-08
1.94318e-05
1.98444e-08
1.94317e-05
1.91382e-08
1.94316e-05
1.84498e-08
1.94315e-05
1.77059e-08
1.94315e-05
1.69941e-08
1.94315e-05
1.62202e-08
1.94316e-05
1.54894e-08
1.94317e-05
1.47103e-08
1.94318e-05
1.39783e-08
1.94319e-05
1.32176e-08
1.9432e-05
1.25057e-08
1.94322e-05
1.17838e-08
1.94324e-05
1.11098e-08
1.94325e-05
1.04394e-08
9.79681e-09
1.94327e-05
2.1005e-05
-1.36841e-10
2.10038e-05
9.39946e-10
2.10031e-05
4.14873e-09
2.10029e-05
7.74019e-09
2.10029e-05
1.08509e-08
2.10024e-05
1.28998e-08
2.10013e-05
1.40493e-08
2.09998e-05
1.51597e-08
2.09982e-05
1.60473e-08
2.09967e-05
1.7264e-08
2.09953e-05
1.9062e-08
2.09941e-05
1.97477e-08
2.09932e-05
2.11798e-08
2.09922e-05
2.24847e-08
2.09914e-05
2.27242e-08
2.09907e-05
2.37289e-08
2.09898e-05
2.38687e-08
2.09893e-05
2.37574e-08
2.09886e-05
2.40152e-08
2.09881e-05
2.36535e-08
2.09876e-05
2.33244e-08
2.09872e-05
2.267e-08
2.09869e-05
2.20955e-08
2.09867e-05
2.14281e-08
2.09866e-05
2.06901e-08
2.09864e-05
1.99707e-08
2.09864e-05
1.91854e-08
2.09864e-05
1.8478e-08
2.09864e-05
1.76794e-08
2.09864e-05
1.69421e-08
2.09865e-05
1.61271e-08
2.09866e-05
1.5371e-08
2.09868e-05
1.45677e-08
2.09869e-05
1.38185e-08
2.09871e-05
1.30473e-08
2.09873e-05
1.23248e-08
2.09875e-05
1.16003e-08
2.09877e-05
1.09207e-08
2.09879e-05
1.0253e-08
9.60935e-09
2.0988e-05
2.26823e-05
4.52729e-10
2.26812e-05
2.05664e-09
2.26804e-05
4.9357e-09
2.268e-05
8.22026e-09
2.26797e-05
1.10599e-08
2.26793e-05
1.33143e-08
2.26784e-05
1.49722e-08
2.26771e-05
1.64515e-08
2.26756e-05
1.75658e-08
2.26742e-05
1.86876e-08
2.26729e-05
2.03687e-08
2.26716e-05
2.10598e-08
2.26707e-05
2.20775e-08
2.26698e-05
2.33651e-08
2.26689e-05
2.35544e-08
2.26684e-05
2.4266e-08
2.26677e-05
2.45916e-08
2.26671e-05
2.43029e-08
2.26667e-05
2.44375e-08
2.26663e-05
2.40976e-08
2.2666e-05
2.36408e-08
2.26657e-05
2.29323e-08
2.26656e-05
2.22042e-08
2.26655e-05
2.15277e-08
2.26654e-05
2.07335e-08
2.26654e-05
2.00019e-08
2.26654e-05
1.91634e-08
2.26655e-05
1.84167e-08
2.26656e-05
1.7583e-08
2.26657e-05
1.68106e-08
2.26659e-05
1.59756e-08
2.26661e-05
1.51889e-08
2.26662e-05
1.43763e-08
2.26665e-05
1.3607e-08
2.26667e-05
1.28367e-08
2.26669e-05
1.21033e-08
2.26671e-05
1.13846e-08
2.26673e-05
1.06999e-08
2.26675e-05
1.00404e-08
9.39728e-09
2.26678e-05
2.44935e-05
9.13666e-10
2.44925e-05
3.03464e-09
2.44916e-05
5.80693e-09
2.4491e-05
8.8295e-09
2.44905e-05
1.15638e-08
2.449e-05
1.37898e-08
2.44893e-05
1.56926e-08
2.44883e-05
1.75149e-08
2.44869e-05
1.89017e-08
2.44856e-05
2.00049e-08
2.44844e-05
2.15665e-08
2.44832e-05
2.2305e-08
2.44823e-05
2.29923e-08
2.44815e-05
2.41249e-08
2.44807e-05
2.43657e-08
2.44802e-05
2.47228e-08
2.44797e-05
2.50826e-08
2.44793e-05
2.47598e-08
2.4479e-05
2.46713e-08
2.44788e-05
2.43485e-08
2.44786e-05
2.37889e-08
2.44785e-05
2.30605e-08
2.44785e-05
2.22126e-08
2.44785e-05
2.15059e-08
2.44786e-05
2.06859e-08
2.44786e-05
1.99313e-08
2.44787e-05
1.9069e-08
2.44789e-05
1.827e-08
2.44791e-05
1.74164e-08
2.44793e-05
1.66031e-08
2.44795e-05
1.57618e-08
2.44797e-05
1.49468e-08
2.448e-05
1.41344e-08
2.44802e-05
1.33479e-08
2.44805e-05
1.25832e-08
2.44807e-05
1.18427e-08
2.4481e-05
1.1134e-08
2.44812e-05
1.04509e-08
2.44815e-05
9.80885e-09
9.15703e-09
2.44817e-05
2.64492e-05
1.27638e-09
2.64484e-05
3.87218e-09
2.64475e-05
6.69668e-09
2.64468e-05
9.5531e-09
2.64461e-05
1.22407e-08
2.64454e-05
1.44744e-08
2.64447e-05
1.63874e-08
2.64439e-05
1.83433e-08
2.64428e-05
1.99782e-08
2.64417e-05
2.11314e-08
2.64407e-05
2.25743e-08
2.64396e-05
2.34063e-08
2.64387e-05
2.38726e-08
2.6438e-05
2.47597e-08
2.64373e-05
2.50672e-08
2.64369e-05
2.51379e-08
2.64367e-05
2.53428e-08
2.64364e-05
2.50311e-08
2.64363e-05
2.47241e-08
2.64363e-05
2.43595e-08
2.64363e-05
2.37757e-08
2.64363e-05
2.30646e-08
2.64364e-05
2.21704e-08
2.64365e-05
2.13819e-08
2.64366e-05
2.0538e-08
2.64368e-05
1.97445e-08
2.6437e-05
1.88798e-08
2.64373e-05
1.8035e-08
2.64375e-05
1.717e-08
2.64378e-05
1.63215e-08
2.64381e-05
1.54793e-08
2.64384e-05
1.46463e-08
2.64387e-05
1.3838e-08
2.6439e-05
1.30432e-08
2.64393e-05
1.2286e-08
2.64396e-05
1.1546e-08
2.64399e-05
1.08475e-08
2.64401e-05
1.01685e-08
2.64404e-05
9.53149e-09
8.90323e-09
2.64407e-05
2.8561e-05
1.56668e-09
2.85603e-05
4.59145e-09
2.85595e-05
7.54959e-09
2.85587e-05
1.03451e-08
2.85579e-05
1.30057e-08
2.85571e-05
1.53222e-08
2.85562e-05
1.72103e-08
2.85555e-05
1.90847e-08
2.85547e-05
2.08135e-08
2.85537e-05
2.20426e-08
2.8553e-05
2.33188e-08
2.85522e-05
2.42389e-08
2.85514e-05
2.46221e-08
2.85509e-05
2.52372e-08
2.85504e-05
2.55595e-08
2.85501e-05
2.54754e-08
2.855e-05
2.54434e-08
2.85499e-05
2.51083e-08
2.855e-05
2.46512e-08
2.85502e-05
2.4188e-08
2.85504e-05
2.35766e-08
2.85506e-05
2.28762e-08
2.85507e-05
2.20021e-08
2.8551e-05
2.11559e-08
2.85512e-05
2.02887e-08
2.85515e-05
1.94484e-08
2.85518e-05
1.85826e-08
2.85521e-05
1.77073e-08
2.85525e-05
1.68362e-08
2.85528e-05
1.59662e-08
2.85532e-05
1.51237e-08
2.85535e-05
1.42856e-08
2.85539e-05
1.34841e-08
2.85542e-05
1.26938e-08
2.85546e-05
1.19464e-08
2.85549e-05
1.12167e-08
2.85552e-05
1.05305e-08
2.85555e-05
9.865e-09
2.85558e-05
9.24105e-09
8.65402e-09
2.85561e-05
3.08414e-05
1.80326e-09
3.08408e-05
5.18539e-09
3.084e-05
8.34925e-09
3.08392e-05
1.11717e-08
3.08384e-05
1.38222e-08
3.08375e-05
1.61793e-08
3.08366e-05
1.81155e-08
3.08359e-05
1.98772e-08
3.08351e-05
2.15212e-08
3.08344e-05
2.27837e-08
3.08338e-05
2.38747e-08
3.08334e-05
2.47326e-08
3.08329e-05
2.51177e-08
3.08326e-05
2.54778e-08
3.08324e-05
2.57318e-08
3.08323e-05
2.55877e-08
3.08324e-05
2.53764e-08
3.08325e-05
2.49712e-08
3.08328e-05
2.44243e-08
3.08331e-05
2.38598e-08
3.08334e-05
2.32193e-08
3.08338e-05
2.25186e-08
3.08341e-05
2.16883e-08
3.08345e-05
2.08167e-08
3.08348e-05
1.99297e-08
3.08352e-05
1.90447e-08
3.08356e-05
1.81669e-08
3.08361e-05
1.72753e-08
3.08365e-05
1.64015e-08
3.08369e-05
1.55258e-08
3.08374e-05
1.46843e-08
3.08378e-05
1.38523e-08
3.08382e-05
1.30596e-08
3.08387e-05
1.22835e-08
3.0839e-05
1.1549e-08
3.08394e-05
1.08402e-08
3.08398e-05
1.0179e-08
3.08401e-05
9.5319e-09
3.08404e-05
8.92259e-09
8.35161e-09
3.08407e-05
3.33039e-05
1.95814e-09
3.33034e-05
5.72128e-09
3.33027e-05
9.05551e-09
3.33019e-05
1.20082e-08
3.33011e-05
1.46262e-08
3.33003e-05
1.69815e-08
3.32995e-05
1.89113e-08
3.32987e-05
2.06375e-08
3.32981e-05
2.20906e-08
3.32975e-05
2.33751e-08
3.32971e-05
2.4366e-08
3.32967e-05
2.50591e-08
3.32964e-05
2.54256e-08
3.32963e-05
2.55953e-08
3.32963e-05
2.57009e-08
3.32964e-05
2.54848e-08
3.32967e-05
2.51385e-08
3.3297e-05
2.46425e-08
3.32974e-05
2.40118e-08
3.32979e-05
2.33414e-08
3.32985e-05
2.2635e-08
3.32991e-05
2.19164e-08
3.32997e-05
2.11312e-08
3.33002e-05
2.02898e-08
3.33007e-05
1.94132e-08
3.33012e-05
1.85177e-08
3.33018e-05
1.76285e-08
3.33023e-05
1.67368e-08
3.33029e-05
1.58644e-08
3.33034e-05
1.4995e-08
3.33039e-05
1.41391e-08
3.33045e-05
1.33262e-08
3.3305e-05
1.25505e-08
3.33055e-05
1.1801e-08
3.33059e-05
1.10875e-08
3.33064e-05
1.04026e-08
3.33068e-05
9.75295e-09
3.33072e-05
9.13289e-09
3.33076e-05
8.54644e-09
7.98016e-09
3.33079e-05
3.5963e-05
2.09629e-09
3.59625e-05
6.20275e-09
3.59618e-05
9.72515e-09
3.59611e-05
1.27754e-08
3.59603e-05
1.53575e-08
3.59596e-05
1.76898e-08
3.5959e-05
1.95647e-08
3.59583e-05
2.12937e-08
3.59578e-05
2.25849e-08
3.59575e-05
2.37009e-08
3.59572e-05
2.46369e-08
3.59572e-05
2.5117e-08
3.59572e-05
2.53915e-08
3.59574e-05
2.54137e-08
3.59577e-05
2.53468e-08
3.59582e-05
2.50555e-08
3.59587e-05
2.46012e-08
3.59593e-05
2.40557e-08
3.59599e-05
2.3386e-08
3.59606e-05
2.2693e-08
3.59612e-05
2.19661e-08
3.59619e-05
2.12992e-08
3.59625e-05
2.0506e-08
3.59631e-05
1.96515e-08
3.59638e-05
1.87077e-08
3.59646e-05
1.77958e-08
3.59653e-05
1.6901e-08
3.5966e-05
1.60317e-08
3.59666e-05
1.52216e-08
3.59672e-05
1.44044e-08
3.59677e-05
1.3606e-08
3.59682e-05
1.28318e-08
3.59687e-05
1.20853e-08
3.59691e-05
1.13675e-08
3.59695e-05
1.06798e-08
3.59699e-05
1.00226e-08
3.59703e-05
9.39578e-09
3.59706e-05
8.79952e-09
3.59709e-05
8.23291e-09
7.70435e-09
3.59712e-05
3.88347e-05
1.81303e-09
3.88333e-05
7.61737e-09
3.88333e-05
9.70702e-09
3.88324e-05
1.37495e-08
3.88324e-05
1.53209e-08
3.88315e-05
1.85591e-08
3.88314e-05
1.97284e-08
3.88306e-05
2.20984e-08
3.88303e-05
2.28372e-08
3.88298e-05
2.421e-08
3.88298e-05
2.46857e-08
3.88295e-05
2.54096e-08
3.88296e-05
2.52783e-08
3.88295e-05
2.54853e-08
3.88298e-05
2.50507e-08
3.883e-05
2.48863e-08
3.88304e-05
2.41413e-08
3.88309e-05