/*--------------------------------*- C++ -*----------------------------------*\
| =========                 |                                                 |
| \\      /  F ield         | OpenFOAM: The Open Source CFD Toolbox           |
|  \\    /   O peration     | Version:  2312                                  |
|   \\  /    A nd           | Website:  www.openfoam.com                      |
|    \\/     M anipulation  |                                                 |
\*---------------------------------------------------------------------------*/
FoamFile
{
    version     2.0;
    format      ascii;
    arch        "LSB;label=32;scalar=64";
    class       volVectorField;
    location    "0.45";
    object      U;
}
// * * * * * * * * * * * * * * * * * * * * * * * * * * * * * * * * * * * * * //

dimensions      [0 1 -1 0 0 0 0];

internalField   nonuniform List<vector> 
5600
(
(0.971718 -0.000821078 0)
(1.02739 0.000655504 0)
(0.974458 -0.000757969 0)
(1.02515 0.000676048 0)
(0.976917 -0.000320544 0)
(1.02231 0.000650868 0)
(0.978902 -0.000469954 0)
(1.02001 0.000129388 0)
(0.981443 -0.000651786 0)
(1.01822 6.58084e-05 0)
(0.983531 -0.000269726 0)
(1.01617 0.000330686 0)
(0.985197 1.86621e-05 0)
(1.01407 0.000542348 0)
(0.986465 0.000238978 0)
(1.01195 0.000573121 0)
(0.987533 0.000302073 0)
(1.00994 0.000457648 0)
(0.988443 0.000169646 0)
(1.00824 0.000256396 0)
(0.989413 -5.22493e-05 0)
(1.00682 1.097e-05 0)
(0.990286 -0.000258338 0)
(1.00551 -0.000167108 0)
(0.990993 -0.000340696 0)
(1.00429 -0.000203334 0)
(0.991523 -0.000284238 0)
(1.00311 -0.000108383 0)
(0.991912 -0.000139852 0)
(1.00201 2.45833e-05 0)
(0.99216 1.63039e-05 0)
(1.00092 0.000185325 0)
(0.99223 0.000233494 0)
(0.999831 0.000460771 0)
(0.992175 0.000593614 0)
(0.998802 0.000876033 0)
(0.992068 0.00107302 0)
(0.997846 0.00143902 0)
(0.991975 0.00180604 0)
(0.997325 0.00239176 0)
(0.987336 -0.00083569 0)
(1.01101 0.000636894 0)
(0.989909 -0.000764018 0)
(1.00925 0.000668111 0)
(0.991987 -0.000278495 0)
(1.00723 0.000652081 0)
(0.993447 -0.000442829 0)
(1.00561 7.18795e-05 0)
(0.995142 -0.000644839 0)
(1.00459 2.4596e-05 0)
(0.99599 -0.000220426 0)
(1.00348 0.000310052 0)
(0.996864 9.33886e-05 0)
(1.00238 0.000555204 0)
(0.997358 0.0003337 0)
(1.00136 0.000614897 0)
(0.997467 0.000414064 0)
(1.0004 0.000498179 0)
(0.997396 0.000262397 0)
(0.999647 0.000281777 0)
(0.997435 2.01059e-05 0)
(0.9991 3.17789e-05 0)
(0.997427 -0.000189556 0)
(0.998593 -0.000129559 0)
(0.997313 -0.00025404 0)
(0.99809 -0.000135386 0)
(0.997086 -0.00017055 0)
(0.997556 -3.91191e-06 0)
(0.996773 1.65649e-05 0)
(0.997027 0.000192817 0)
(0.99641 0.00024826 0)
(0.996498 0.000450978 0)
(0.99601 0.000581275 0)
(0.995988 0.000865996 0)
(0.995601 0.00109584 0)
(0.995511 0.00145444 0)
(0.99525 0.00176398 0)
(0.995222 0.00222669 0)
(0.99525 0.00271741 0)
(0.995606 0.00339932 0)
(0.996926 -0.000748301 0)
(1.002 0.000527041 0)
(0.997668 -0.000663971 0)
(1.00137 0.000558265 0)
(0.998287 -0.000185201 0)
(1.00089 0.000543914 0)
(0.998679 -0.000332174 0)
(1.00032 -3.44803e-05 0)
(0.99902 -0.000545933 0)
(0.999999 -3.68973e-05 0)
(0.998719 -0.000127187 0)
(0.99956 0.000210387 0)
(0.998884 0.000185229 0)
(0.999304 0.000462123 0)
(0.998949 0.000410761 0)
(0.999092 0.000565241 0)
(0.998753 0.000486688 0)
(0.998732 0.000465251 0)
(0.998375 0.000329217 0)
(0.998394 0.000246182 0)
(0.998117 8.40986e-05 0)
(0.99808 5.39592e-06 0)
(0.99781 -0.000108358 0)
(0.997692 -0.000129973 0)
(0.997427 -0.000161569 0)
(0.997257 -0.000115662 0)
(0.996981 -7.38153e-05 0)
(0.996775 2.43914e-05 0)
(0.996513 0.000113312 0)
(0.996299 0.000250394 0)
(0.996049 0.000387852 0)
(0.995828 0.0005807 0)
(0.995599 0.000769821 0)
(0.995385 0.000993953 0)
(0.995175 0.00120998 0)
(0.994983 0.0014706 0)
(0.994843 0.00174235 0)
(0.994777 0.00206621 0)
(0.994866 0.00240107 0)
(0.995193 0.00276507 0)
(0.999561 -0.000739718 0)
(0.99987 0.000514954 0)
(0.999383 -0.000643233 0)
(0.999665 0.000549449 0)
(0.999461 -0.000163887 0)
(0.999776 0.000531255 0)
(0.999618 -0.000301804 0)
(0.99954 -4.70145e-05 0)
(0.999355 -0.000516642 0)
(0.999177 -2.5515e-05 0)
(0.998874 -7.84048e-05 0)
(0.998819 0.000198844 0)
(0.998756 0.000212882 0)
(0.998756 0.000458813 0)
(0.998774 0.000432638 0)
(0.998771 0.000586974 0)
(0.998775 0.000534644 0)
(0.998602 0.000504262 0)
(0.998482 0.00038272 0)
(0.998363 0.000290359 0)
(0.998205 0.00014282 0)
(0.998033 6.46856e-05 0)
(0.997796 -3.68038e-05 0)
(0.997572 -5.29935e-05 0)
(0.99731 -6.89738e-05 0)
(0.997071 -1.01581e-05 0)
(0.996792 5.27065e-05 0)
(0.996548 0.000172927 0)
(0.996283 0.000288373 0)
(0.996062 0.000448241 0)
(0.995832 0.000615516 0)
(0.995621 0.000830072 0)
(0.995408 0.00104248 0)
(0.995202 0.00127744 0)
(0.995025 0.00151085 0)
(0.994875 0.00178017 0)
(0.994805 0.00206738 0)
(0.99481 0.0023939 0)
(0.994984 0.00273466 0)
(0.995375 0.00309429 0)
(0.999984 -0.000674207 0)
(0.999596 0.000446805 0)
(0.99959 -0.000555874 0)
(0.999455 0.000468447 0)
(0.99961 -0.000104301 0)
(0.999681 0.000438241 0)
(0.999764 -0.000214903 0)
(0.99953 -9.88739e-05 0)
(0.999313 -0.000417679 0)
(0.999014 -6.23212e-05 0)
(0.998903 1.42409e-06 0)
(0.998764 0.000156549 0)
(0.998668 0.000260226 0)
(0.998663 0.000411272 0)
(0.99864 0.000431105 0)
(0.998677 0.000551366 0)
(0.99878 0.000537733 0)
(0.998622 0.000503546 0)
(0.99857 0.00040837 0)
(0.998439 0.000305191 0)
(0.998295 0.000197159 0)
(0.998105 0.000116003 0)
(0.997846 5.3306e-05 0)
(0.997599 3.67454e-05 0)
(0.997316 4.64824e-05 0)
(0.997059 0.000103678 0)
(0.996773 0.00018156 0)
(0.996521 0.000303248 0)
(0.99627 0.000446535 0)
(0.996049 0.000624111 0)
(0.995847 0.000816467 0)
(0.995642 0.00101832 0)
(0.995459 0.00122379 0)
(0.995263 0.0014363 0)
(0.995124 0.00165885 0)
(0.994997 0.00189333 0)
(0.994968 0.00213742 0)
(0.994993 0.00238827 0)
(0.995186 0.00263735 0)
(0.995569 0.00287917 0)
(1.00003 -0.000659534 0)
(0.999585 0.000431519 0)
(0.999606 -0.000520244 0)
(0.999447 0.000444179 0)
(0.999634 -8.03378e-05 0)
(0.999683 0.000404837 0)
(0.999776 -0.000175553 0)
(0.999557 -9.69158e-05 0)
(0.999297 -0.000352067 0)
(0.998974 -6.15463e-05 0)
(0.998925 4.09105e-05 0)
(0.998813 0.000158675 0)
(0.998689 0.000285439 0)
(0.998682 0.000413028 0)
(0.998616 0.000442617 0)
(0.998627 0.000539199 0)
(0.998761 0.000552223 0)
(0.99862 0.000523476 0)
(0.998596 0.000445051 0)
(0.998466 0.000351222 0)
(0.99832 0.00026101 0)
(0.998136 0.000194015 0)
(0.997874 0.000151043 0)
(0.997628 0.00014206 0)
(0.997351 0.000169996 0)
(0.997096 0.000234538 0)
(0.996828 0.000334551 0)
(0.99658 0.000466392 0)
(0.996357 0.000637543 0)
(0.996146 0.000823985 0)
(0.995967 0.00103239 0)
(0.995764 0.00122594 0)
(0.995603 0.00143263 0)
(0.995424 0.0016312 0)
(0.995314 0.00184644 0)
(0.995212 0.00205692 0)
(0.995208 0.00227537 0)
(0.99526 0.00248545 0)
(0.995474 0.00269369 0)
(0.995881 0.00289117 0)
(1.00003 -0.000597996 0)
(0.999595 0.000368964 0)
(0.999612 -0.000435097 0)
(0.999463 0.000368682 0)
(0.99964 -2.5428e-05 0)
(0.999684 0.000322496 0)
(0.999762 -0.00010209 0)
(0.999561 -0.000129335 0)
(0.999302 -0.000259816 0)
(0.998987 -7.73303e-05 0)
(0.998944 8.09668e-05 0)
(0.99884 0.000155124 0)
(0.998726 0.000303995 0)
(0.998724 0.000403445 0)
(0.998641 0.000448051 0)
(0.998618 0.000522833 0)
(0.998733 0.000544379 0)
(0.998601 0.000526232 0)
(0.998586 0.000465092 0)
(0.99846 0.000383131 0)
(0.998316 0.000319189 0)
(0.998137 0.000266694 0)
(0.997892 0.000252399 0)
(0.997652 0.000253292 0)
(0.997397 0.000306376 0)
(0.997153 0.000379598 0)
(0.996911 0.000503618 0)
(0.996678 0.000644817 0)
(0.996478 0.000833246 0)
(0.996277 0.00101131 0)
(0.996108 0.00121324 0)
(0.995921 0.00139566 0)
(0.995772 0.00159806 0)
(0.995618 0.00178846 0)
(0.99552 0.00199135 0)
(0.995441 0.00218385 0)
(0.995442 0.00237468 0)
(0.995506 0.00255107 0)
(0.995715 0.00271243 0)
(0.996127 0.00285546 0)
(1.00003 -0.000572197 0)
(0.999608 0.000341368 0)
(0.999621 -0.000384896 0)
(0.999486 0.000330992 0)
(0.999643 4.62125e-06 0)
(0.999688 0.000278115 0)
(0.999742 -5.30514e-05 0)
(0.99956 -0.000126361 0)
(0.999311 -0.000191313 0)
(0.999019 -6.76529e-05 0)
(0.998973 0.000104971 0)
(0.998855 0.000166141 0)
(0.998753 0.000322415 0)
(0.998765 0.000405113 0)
(0.998677 0.000466797 0)
(0.998636 0.000520249 0)
(0.998723 0.000553335 0)
(0.998585 0.000539822 0)
(0.99857 0.000498201 0)
(0.998443 0.000428821 0)
(0.998305 0.000390382 0)
(0.998129 0.00034452 0)
(0.997905 0.000358413 0)
(0.997678 0.000363756 0)
(0.997447 0.000443198 0)
(0.997227 0.000528441 0)
(0.99701 0.000684374 0)
(0.996801 0.000830853 0)
(0.996613 0.00102583 0)
(0.996428 0.00119238 0)
(0.996264 0.00139554 0)
(0.996096 0.00157253 0)
(0.995957 0.00177528 0)
(0.995824 0.00195345 0)
(0.995734 0.00213825 0)
(0.995668 0.00229576 0)
(0.995667 0.00244256 0)
(0.995728 0.00256153 0)
(0.99592 0.00266352 0)
(0.996306 0.00275041 0)
(1.00003 -0.000512096 0)
(0.999621 0.000281121 0)
(0.99963 -0.000303436 0)
(0.999511 0.000263806 0)
(0.999647 5.61147e-05 0)
(0.999688 0.000212048 0)
(0.999724 4.25588e-06 0)
(0.999557 -0.000139511 0)
(0.999323 -0.000118412 0)
(0.999053 -5.65312e-05 0)
(0.999004 0.000129853 0)
(0.998879 0.000167521 0)
(0.998782 0.000350458 0)
(0.998795 0.000396166 0)
(0.998705 0.000485739 0)
(0.998657 0.000511136 0)
(0.998725 0.000565963 0)
(0.998577 0.000539333 0)
(0.998557 0.000537407 0)
(0.998432 0.000456832 0)
(0.998299 0.000471012 0)
(0.99813 0.00041357 0)
(0.997923 0.000478072 0)
(0.997714 0.000479325 0)
(0.99751 0.000604641 0)
(0.997319 0.00068793 0)
(0.997125 0.000867479 0)
(0.996931 0.00099347 0)
(0.996755 0.00119138 0)
(0.996587 0.00134109 0)
(0.996437 0.0015559 0)
(0.996288 0.00173675 0)
(0.996155 0.00196883 0)
(0.996024 0.00216927 0)
(0.995922 0.00239003 0)
(0.995836 0.00256556 0)
(0.995806 0.00273376 0)
(0.995838 0.00284204 0)
(0.996018 0.00289045 0)
(0.996445 0.00278487 0)
(1.00003 -0.000476618 0)
(0.999633 0.000243798 0)
(0.999645 -0.000243911 0)
(0.999532 0.000219134 0)
(0.999656 8.76072e-05 0)
(0.999688 0.000168046 0)
(0.999711 5.04769e-05 0)
(0.999553 -0.000126355 0)
(0.999344 -7.64656e-05 0)
(0.999081 -2.94002e-05 0)
(0.99904 0.000151111 0)
(0.998906 0.000186775 0)
(0.998815 0.000364109 0)
(0.99882 0.000400729 0)
(0.998736 0.000500048 0)
(0.998678 0.00052101 0)
(0.99874 0.000578708 0)
(0.998577 0.000560716 0)
(0.998552 0.000576223 0)
(0.998426 0.000505229 0)
(0.998302 0.00054811 0)
(0.99814 0.000504457 0)
(0.997955 0.00059308 0)
(0.997765 0.000625364 0)
(0.997589 0.000766241 0)
(0.997414 0.000853679 0)
(0.997237 0.00102031 0)
(0.997059 0.00113994 0)
(0.996903 0.00132866 0)
(0.996759 0.00147772 0)
(0.996642 0.00168271 0)
(0.996528 0.00185524 0)
(0.996437 0.00206376 0)
(0.996335 0.00223772 0)
(0.996249 0.00242484 0)
(0.996156 0.00257913 0)
(0.996089 0.00273114 0)
(0.995988 0.00283359 0)
(0.995815 0.00287598 0)
(0.995394 0.0027674 0)
(1.00003 -0.000418 0)
(0.999651 0.000186347 0)
(0.999656 -0.000167671 0)
(0.999559 0.000164805 0)
(0.999663 0.000125374 0)
(0.999691 0.000127334 0)
(0.999699 7.11666e-05 0)
(0.999548 -7.54824e-05 0)
(0.999363 -5.94477e-05 0)
(0.999113 1.48365e-05 0)
(0.999073 0.000158797 0)
(0.998941 0.00021766 0)
(0.998851 0.000363602 0)
(0.998848 0.000423421 0)
(0.998763 0.000497099 0)
(0.998699 0.000547368 0)
(0.998755 0.000577049 0)
(0.998587 0.000593278 0)
(0.99855 0.000603771 0)
(0.998434 0.000567927 0)
(0.998315 0.000616418 0)
(0.998166 0.00062105 0)
(0.998005 0.000706753 0)
(0.997832 0.000780999 0)
(0.997672 0.000901071 0)
(0.99751 0.00100436 0)
(0.997353 0.00114562 0)
(0.997195 0.00128144 0)
(0.997061 0.00144432 0)
(0.996934 0.00159881 0)
(0.996829 0.00176092 0)
(0.996715 0.00190505 0)
(0.996611 0.0020364 0)
(0.99649 0.00215291 0)
(0.996395 0.00226199 0)
(0.996296 0.00237171 0)
(0.996218 0.00247003 0)
(0.996097 0.00255763 0)
(0.995915 0.00262074 0)
(0.995532 0.00267523 0)
(1.00003 -0.000375319 0)
(0.999676 0.000143937 0)
(0.999666 -0.000108305 0)
(0.999588 0.000124972 0)
(0.999669 0.000149558 0)
(0.999696 0.000111524 0)
(0.999695 7.16428e-05 0)
(0.999548 -2.87887e-05 0)
(0.999382 -2.53284e-05 0)
(0.999148 5.28299e-05 0)
(0.999107 0.000174411 0)
(0.998978 0.000245827 0)
(0.998888 0.000374004 0)
(0.998879 0.000439382 0)
(0.998795 0.00050674 0)
(0.998724 0.000569414 0)
(0.998774 0.000594885 0)
(0.998605 0.000625044 0)
(0.998558 0.000649491 0)
(0.998451 0.000638033 0)
(0.998346 0.000700402 0)
(0.998208 0.000746104 0)
(0.998066 0.000827153 0)
(0.997907 0.000912472 0)
(0.997759 0.00102153 0)
(0.997614 0.00113516 0)
(0.997475 0.00127091 0)
(0.997335 0.00140891 0)
(0.997215 0.00155138 0)
(0.997094 0.00168142 0)
(0.996988 0.00180201 0)
(0.996866 0.00191393 0)
(0.996766 0.00202107 0)
(0.996662 0.00213496 0)
(0.996591 0.00225055 0)
(0.996507 0.00237112 0)
(0.996429 0.00247939 0)
(0.996288 0.00257832 0)
(0.99607 0.00265446 0)
(0.995643 0.0027177 0)
(1.00003 -0.00032 0)
(0.999702 9.25347e-05 0)
(0.999677 -4.02378e-05 0)
(0.999617 8.91519e-05 0)
(0.99968 0.000157531 0)
(0.999697 0.000120894 0)
(0.999692 6.93104e-05 0)
(0.999552 -1.09147e-06 0)
(0.999403 1.21099e-05 0)
(0.999182 8.74952e-05 0)
(0.999142 0.000194122 0)
(0.999018 0.000269054 0)
(0.998929 0.000388037 0)
(0.998911 0.000456152 0)
(0.998829 0.000521073 0)
(0.998751 0.000588474 0)
(0.998797 0.000619863 0)
(0.998631 0.000657944 0)
(0.998576 0.00070183 0)
(0.998482 0.000719563 0)
(0.998393 0.000790559 0)
(0.998261 0.000856136 0)
(0.99813 0.000937002 0)
(0.997985 0.00102038 0)
(0.997856 0.00112781 0)
(0.997729 0.00123506 0)
(0.997608 0.00136049 0)
(0.997475 0.00148144 0)
(0.997352 0.00160827 0)
(0.997224 0.00172349 0)
(0.99712 0.0018342 0)
(0.997011 0.00194073 0)
(0.996934 0.0020502 0)
(0.99685 0.00216311 0)
(0.996791 0.00227374 0)
(0.996708 0.00238072 0)
(0.996622 0.00247635 0)
(0.996467 0.00256346 0)
(0.996237 0.00263822 0)
(0.995807 0.00270755 0)
(1.00002 -0.000273707 0)
(0.999734 5.09791e-05 0)
(0.99969 1.92031e-06 0)
(0.999641 7.96985e-05 0)
(0.999696 0.000146743 0)
(0.999702 0.000133209 0)
(0.999694 8.23359e-05 0)
(0.99956 3.03969e-05 0)
(0.999427 4.57997e-05 0)
(0.999218 0.000125265 0)
(0.99918 0.000217752 0)
(0.99906 0.000297982 0)
(0.99897 0.000406713 0)
(0.998947 0.000476594 0)
(0.998867 0.000540361 0)
(0.998786 0.000613894 0)
(0.998826 0.000654213 0)
(0.998664 0.000706336 0)
(0.99861 0.000761639 0)
(0.998522 0.000809882 0)
(0.998448 0.000877778 0)
(0.998324 0.000949849 0)
(0.998201 0.00103637 0)
(0.998071 0.00112063 0)
(0.997952 0.00123083 0)
(0.997837 0.00133118 0)
(0.997725 0.00144743 0)
(0.997606 0.00154999 0)
(0.997499 0.00165859 0)
(0.997381 0.00176191 0)
(0.997286 0.00187093 0)
(0.997185 0.00198073 0)
(0.997117 0.00209056 0)
(0.997039 0.00219968 0)
(0.996987 0.00230184 0)
(0.996904 0.00240044 0)
(0.996817 0.00248868 0)
(0.99666 0.00257332 0)
(0.99643 0.00264834 0)
(0.996003 0.00272138 0)
(1.00002 -0.000225336 0)
(0.999766 1.25926e-05 0)
(0.999708 2.46151e-05 0)
(0.999666 8.97462e-05 0)
(0.999714 0.000148414 0)
(0.999708 0.000141443 0)
(0.999695 9.95462e-05 0)
(0.999569 5.70365e-05 0)
(0.999454 7.4571e-05 0)
(0.999255 0.000156043 0)
(0.999219 0.000243007 0)
(0.999105 0.000324085 0)
(0.999015 0.00042869 0)
(0.998985 0.000498008 0)
(0.998909 0.000564392 0)
(0.998824 0.000645638 0)
(0.998864 0.000690829 0)
(0.998709 0.000761322 0)
(0.998655 0.0008251 0)
(0.998574 0.00088257 0)
(0.998506 0.000960355 0)
(0.998394 0.00102934 0)
(0.99828 0.0011278 0)
(0.998164 0.00121173 0)
(0.998061 0.00132372 0)
(0.997955 0.00142007 0)
(0.997851 0.00152701 0)
(0.997728 0.00161934 0)
(0.997623 0.00171222 0)
(0.997515 0.00180435 0)
(0.997442 0.0019018 0)
(0.997359 0.00200756 0)
(0.997307 0.00211111 0)
(0.997237 0.00221695 0)
(0.997188 0.00231206 0)
(0.997107 0.00240646 0)
(0.997021 0.00248866 0)
(0.996865 0.00257043 0)
(0.996636 0.0026411 0)
(0.996209 0.00271167 0)
(1.00002 -0.000180601 0)
(0.999799 -2.01566e-05 0)
(0.999731 4.3646e-05 0)
(0.99969 0.000103172 0)
(0.999731 0.000148567 0)
(0.999717 0.00014334 0)
(0.999701 0.000116858 0)
(0.999581 9.12956e-05 0)
(0.999482 0.00010885 0)
(0.999295 0.00018725 0)
(0.999261 0.000270841 0)
(0.999151 0.00035046 0)
(0.999061 0.000455884 0)
(0.999028 0.00052325 0)
(0.998957 0.000594291 0)
(0.99887 0.000685131 0)
(0.998911 0.000735948 0)
(0.998762 0.000814863 0)
(0.998706 0.000891418 0)
(0.998633 0.000946369 0)
(0.998573 0.00103529 0)
(0.998474 0.00110546 0)
(0.998371 0.0012075 0)
(0.998266 0.00129179 0)
(0.998171 0.00139348 0)
(0.998067 0.00148442 0)
(0.997966 0.00157671 0)
(0.997848 0.00166856 0)
(0.997759 0.00175836 0)
(0.997667 0.00185821 0)
(0.997613 0.0019531 0)
(0.997544 0.0020586 0)
(0.997503 0.00215318 0)
(0.997438 0.00225376 0)
(0.997393 0.00233953 0)
(0.997312 0.00242844 0)
(0.997227 0.00250289 0)
(0.99707 0.00257975 0)
(0.996842 0.00264399 0)
(0.996415 0.00271016 0)
(1.00002 -0.000141118 0)
(0.999832 -4.33321e-05 0)
(0.999758 5.32487e-05 0)
(0.999715 0.000114417 0)
(0.999749 0.000154714 0)
(0.999727 0.000152966 0)
(0.999709 0.000134289 0)
(0.999596 0.000120981 0)
(0.999512 0.000143182 0)
(0.999335 0.000219111 0)
(0.999302 0.000298975 0)
(0.999202 0.000377296 0)
(0.999112 0.000484603 0)
(0.999072 0.00055361 0)
(0.999012 0.000628312 0)
(0.998922 0.00072887 0)
(0.998961 0.000784389 0)
(0.998826 0.000860493 0)
(0.998764 0.000953365 0)
(0.9987 0.00100859 0)
(0.998649 0.00110064 0)
(0.998559 0.00117633 0)
(0.998467 0.00127303 0)
(0.998365 0.0013614 0)
(0.998281 0.00145121 0)
(0.998181 0.00154316 0)
(0.998094 0.00162817 0)
(0.997985 0.001726 0)
(0.997911 0.00181404 0)
(0.99783 0.00191546 0)
(0.997789 0.00200399 0)
(0.99773 0.00210333 0)
(0.997697 0.00218873 0)
(0.997637 0.00228084 0)
(0.997594 0.00235852 0)
(0.997515 0.00243962 0)
(0.997431 0.00250782 0)
(0.997276 0.00257798 0)
(0.997048 0.00263747 0)
(0.996622 0.00269796 0)
(1.00002 -0.000104454 0)
(0.999863 -6.22927e-05 0)
(0.99979 6.04574e-05 0)
(0.99974 0.00012744 0)
(0.999767 0.000163069 0)
(0.999739 0.000163977 0)
(0.99972 0.000153965 0)
(0.999612 0.000152574 0)
(0.999543 0.000175897 0)
(0.999377 0.000250794 0)
(0.999348 0.000328962 0)
(0.999254 0.000405806 0)
(0.999164 0.000514356 0)
(0.999122 0.000587944 0)
(0.999073 0.000667215 0)
(0.998981 0.000770399 0)
(0.999015 0.000837464 0)
(0.998895 0.000907935 0)
(0.998833 0.00100551 0)
(0.998769 0.00107222 0)
(0.998733 0.00115709 0)
(0.99865 0.00124131 0)
(0.998571 0.00133052 0)
(0.998473 0.00142489 0)
(0.998396 0.0015095 0)
(0.998302 0.00160176 0)
(0.998226 0.00168221 0)
(0.99813 0.00177686 0)
(0.998068 0.00186257 0)
(0.997997 0.00195854 0)
(0.997965 0.00204334 0)
(0.997914 0.0021334 0)
(0.997887 0.00221334 0)
(0.997832 0.00229539 0)
(0.997792 0.00236826 0)
(0.997715 0.00244052 0)
(0.997632 0.00250486 0)
(0.997479 0.00256739 0)
(0.997252 0.00262367 0)
(0.996827 0.0026776 0)
(1.00002 -7.45696e-05 0)
(0.999893 -6.14671e-05 0)
(0.999827 5.54028e-05 0)
(0.999766 0.000133093 0)
(0.999785 0.000172361 0)
(0.999752 0.000178694 0)
(0.999733 0.000175782 0)
(0.999632 0.000183673 0)
(0.999576 0.000210805 0)
(0.99942 0.000284023 0)
(0.999392 0.000361351 0)
(0.99931 0.000435143 0)
(0.999224 0.000546664 0)
(0.999176 0.000625465 0)
(0.999138 0.000707567 0)
(0.999047 0.000808568 0)
(0.999075 0.000884785 0)
(0.998968 0.000959842 0)
(0.998911 0.00105037 0)
(0.998848 0.00113204 0)
(0.998821 0.00121117 0)
(0.998747 0.00129927 0)
(0.998678 0.00138424 0)
(0.998586 0.00147618 0)
(0.998516 0.00156038 0)
(0.998427 0.00164837 0)
(0.998362 0.00172983 0)
(0.998279 0.00181697 0)
(0.998229 0.00190186 0)
(0.998168 0.00198943 0)
(0.998143 0.00207252 0)
(0.998099 0.00215363 0)
(0.998077 0.00223008 0)
(0.998027 0.00230313 0)
(0.997989 0.0023721 0)
(0.997916 0.00243666 0)
(0.997833 0.00249742 0)
(0.997682 0.00255351 0)
(0.997455 0.0026064 0)
(0.997032 0.00265486 0)
(1.00001 -5.214e-05 0)
(0.999917 -4.23537e-05 0)
(0.999859 4.05767e-05 0)
(0.999793 0.000132367 0)
(0.999803 0.000182001 0)
(0.999764 0.000195696 0)
(0.999746 0.000200653 0)
(0.999649 0.000217513 0)
(0.999606 0.000245609 0)
(0.999463 0.000317091 0)
(0.999438 0.000396463 0)
(0.999366 0.000466675 0)
(0.999284 0.000580734 0)
(0.999233 0.000663501 0)
(0.999204 0.000747608 0)
(0.999115 0.000846335 0)
(0.999141 0.000923012 0)
(0.99904 0.00101055 0)
(0.998993 0.00109501 0)
(0.998931 0.00118242 0)
(0.998912 0.0012625 0)
(0.998847 0.00134916 0)
(0.998787 0.00143513 0)
(0.998703 0.00152002 0)
(0.998639 0.00160519 0)
(0.998558 0.00168716 0)
(0.9985 0.00177046 0)
(0.998429 0.00185056 0)
(0.99839 0.00193342 0)
(0.998339 0.00201312 0)
(0.99832 0.00209284 0)
(0.998281 0.00216712 0)
(0.998262 0.002239 0)
(0.998216 0.00230545 0)
(0.998182 0.00236894 0)
(0.99811 0.00242774 0)
(0.998029 0.00248324 0)
(0.997879 0.00253468 0)
(0.997653 0.00258273 0)
(0.99723 0.00262738 0)
(1.00001 -3.23579e-05 0)
(0.999933 -2.72933e-05 0)
(0.999889 3.72207e-05 0)
(0.999822 0.000129137 0)
(0.999821 0.000189001 0)
(0.999775 0.00021362 0)
(0.999759 0.000226287 0)
(0.999667 0.000251497 0)
(0.999636 0.000284289 0)
(0.999505 0.000353064 0)
(0.99948 0.000434326 0)
(0.999422 0.000499749 0)
(0.999348 0.000613299 0)
(0.999291 0.000699924 0)
(0.999271 0.000783143 0)
(0.999183 0.000887133 0)
(0.999213 0.00095725 0)
(0.999122 0.00105441 0)
(0.999075 0.00114188 0)
(0.99902 0.00122571 0)
(0.999006 0.00131157 0)
(0.998951 0.00139124 0)
(0.998896 0.00148179 0)
(0.998819 0.00155814 0)
(0.998762 0.00164199 0)
(0.998689 0.0017172 0)
(0.998641 0.00179877 0)
(0.998579 0.00187503 0)
(0.99855 0.00195328 0)
(0.998508 0.00202831 0)
(0.998495 0.00210149 0)
(0.99846 0.00217184 0)
(0.998445 0.00223714 0)
(0.998401 0.00230007 0)
(0.998369 0.00235684 0)
(0.998299 0.00241223 0)
(0.99822 0.0024614 0)
(0.998071 0.00250993 0)
(0.997846 0.00255244 0)
(0.997423 0.00259465 0)
(1.00001 -1.77647e-05 0)
(0.999947 -1.09093e-05 0)
(0.999914 4.67907e-05 0)
(0.999848 0.000122867 0)
(0.99984 0.000189997 0)
(0.999788 0.000227814 0)
(0.999773 0.000252934 0)
(0.999685 0.000286987 0)
(0.999663 0.000323979 0)
(0.999546 0.000388895 0)
(0.999523 0.000473268 0)
(0.999476 0.000535698 0)
(0.999411 0.00064327 0)
(0.999351 0.000735316 0)
(0.999343 0.000814018 0)
(0.999253 0.000925324 0)
(0.999285 0.000995246 0)
(0.999209 0.00108783 0)
(0.999163 0.00118582 0)
(0.999112 0.00126464 0)
(0.999102 0.00135234 0)
(0.999059 0.00142629 0)
(0.999009 0.00151626 0)
(0.998935 0.00158996 0)
(0.998885 0.00166832 0)
(0.998821 0.00174015 0)
(0.998785 0.00181577 0)
(0.99873 0.00189099 0)
(0.998711 0.00196315 0)
(0.998674 0.00203585 0)
(0.998669 0.00210143 0)
(0.998637 0.00216861 0)
(0.998626 0.00222682 0)
(0.998582 0.0022868 0)
(0.998552 0.00233728 0)
(0.998482 0.00238962 0)
(0.998405 0.00243313 0)
(0.998257 0.00247864 0)
(0.998033 0.00251631 0)
(0.997611 0.00255578 0)
(1.00001 -5.79223e-06 0)
(0.999957 5.16757e-06 0)
(0.999933 5.71786e-05 0)
(0.999872 0.000122153 0)
(0.999862 0.000189156 0)
(0.999803 0.000240012 0)
(0.999788 0.000277226 0)
(0.999704 0.000320444 0)
(0.99969 0.000364919 0)
(0.999586 0.000426974 0)
(0.999565 0.000512351 0)
(0.999527 0.000573946 0)
(0.999478 0.000672332 0)
(0.999411 0.000770875 0)
(0.999415 0.000842966 0)
(0.99933 0.000956921 0)
(0.999357 0.00103512 0)
(0.999303 0.00111679 0)
(0.999256 0.00122223 0)
(0.999205 0.00130003 0)
(0.999199 0.00138658 0)
(0.999164 0.00145555 0)
(0.999124 0.00153893 0)
(0.999049 0.00161275 0)
(0.999007 0.00168477 0)
(0.99895 0.00175587 0)
(0.998928 0.00182363 0)
(0.998881 0.00189786 0)
(0.998871 0.00196353 0)
(0.998838 0.00203421 0)
(0.998838 0.00209307 0)
(0.998809 0.00215654 0)
(0.998801 0.00220869 0)
(0.998759 0.00226482 0)
(0.99873 0.00231053 0)
(0.998661 0.00235908 0)
(0.998585 0.00239863 0)
(0.998437 0.0024403 0)
(0.998215 0.00247466 0)
(0.997793 0.00251051 0)
(1.00001 2.53594e-06 0)
(0.999964 2.17379e-05 0)
(0.99995 6.82814e-05 0)
(0.999892 0.000129593 0)
(0.999882 0.000190764 0)
(0.999821 0.000247937 0)
(0.999806 0.000298036 0)
(0.999725 0.000350719 0)
(0.999717 0.000402465 0)
(0.999626 0.000464148 0)
(0.999607 0.000549528 0)
(0.999576 0.000613712 0)
(0.999543 0.000701455 0)
(0.999473 0.000803807 0)
(0.999488 0.000874402 0)
(0.999413 0.000980057 0)
(0.99943 0.00107087 0)
(0.999394 0.00114422 0)
(0.999357 0.00124731 0)
(0.999301 0.00132916 0)
(0.999296 0.0014113 0)
(0.999265 0.00147878 0)
(0.999238 0.00155067 0)
(0.999166 0.0016248 0)
(0.99913 0.00169168 0)
(0.999078 0.00176293 0)
(0.99907 0.00182479 0)
(0.999032 0.0018957 0)
(0.99903 0.00195624 0)
(0.999 0.00202277 0)
(0.999003 0.00207729 0)
(0.998976 0.00213546 0)
(0.998971 0.00218359 0)
(0.998931 0.00223425 0)
(0.998903 0.00227686 0)
(0.998835 0.00232045 0)
(0.998758 0.0023576 0)
(0.998611 0.00239465 0)
(0.998389 0.00242695 0)
(0.997968 0.00245854 0)
(1.00001 9.29601e-06 0)
(0.99997 3.6324e-05 0)
(0.999962 8.10491e-05 0)
(0.999908 0.000138321 0)
(0.9999 0.000197704 0)
(0.999841 0.000255506 0)
(0.999828 0.000313876 0)
(0.999749 0.000376609 0)
(0.999744 0.00043686 0)
(0.999665 0.000500147 0)
(0.99965 0.000585431 0)
(0.999621 0.000652767 0)
(0.999608 0.000731237 0)
(0.999537 0.000833452 0)
(0.999557 0.000906514 0)
(0.9995 0.000999254 0)
(0.999509 0.00109693 0)
(0.999484 0.00116903 0)
(0.999461 0.00126344 0)
(0.999402 0.00134786 0)
(0.999393 0.00142618 0)
(0.999361 0.00149338 0)
(0.999348 0.00155552 0)
(0.999283 0.00162664 0)
(0.999256 0.00169023 0)
(0.999208 0.0017604 0)
(0.999209 0.00181946 0)
(0.999181 0.0018852 0)
(0.999186 0.00194188 0)
(0.99916 0.0020023 0)
(0.999164 0.00205391 0)
(0.999139 0.00210603 0)
(0.999134 0.00215146 0)
(0.999097 0.00219616 0)
(0.999069 0.00223646 0)
(0.999003 0.00227483 0)
(0.998925 0.00231019 0)
(0.998779 0.00234275 0)
(0.998556 0.00237348 0)
(0.998137 0.0024011 0)
(1.00001 1.43532e-05 0)
(0.999974 4.86377e-05 0)
(0.999972 9.44151e-05 0)
(0.999922 0.000149099 0)
(0.999916 0.00020879 0)
(0.999859 0.000266809 0)
(0.999852 0.00032711 0)
(0.999777 0.000396531 0)
(0.999774 0.000464968 0)
(0.999705 0.00053116 0)
(0.999696 0.000615987 0)
(0.999667 0.000689342 0)
(0.99967 0.000761432 0)
(0.999605 0.000857807 0)
(0.999624 0.000937316 0)
(0.999585 0.00101823 0)
(0.999594 0.00111302 0)
(0.999571 0.00118731 0)
(0.999564 0.00127063 0)
(0.999506 0.00135379 0)
(0.999493 0.00142796 0)
(0.999454 0.00149563 0)
(0.999452 0.00155203 0)
(0.9994 0.00161796 0)
(0.999384 0.00167868 0)
(0.999343 0.00174517 0)
(0.999348 0.00180288 0)
(0.999326 0.00186235 0)
(0.999336 0.00191583 0)
(0.999315 0.00196912 0)
(0.99932 0.00201789 0)
(0.999297 0.00206384 0)
(0.999292 0.00210671 0)
(0.999257 0.00214589 0)
(0.999229 0.00218366 0)
(0.999165 0.00221731 0)
(0.999086 0.00225043 0)
(0.998942 0.00227908 0)
(0.998717 0.00230774 0)
(0.998299 0.00233201 0)
(1.00001 1.86315e-05 0)
(0.999977 5.98158e-05 0)
(0.99998 0.000107891 0)
(0.999935 0.000162065 0)
(0.999931 0.000221536 0)
(0.999877 0.000282657 0)
(0.999876 0.000343147 0)
(0.999808 0.000412813 0)
(0.999808 0.000487303 0)
(0.999747 0.000556601 0)
(0.999744 0.000638999 0)
(0.999714 0.000717862 0)
(0.999729 0.000788007 0)
(0.999675 0.000877529 0)
(0.999692 0.000961127 0)
(0.999665 0.00103694 0)
(0.99968 0.0011235 0)
(0.999658 0.00119925 0)
(0.999662 0.00127495 0)
(0.999609 0.0013542 0)
(0.999594 0.00142671 0)
(0.99955 0.00149528 0)
(0.999553 0.00155215 0)
(0.999514 0.00161325 0)
(0.999511 0.0016716 0)
(0.999477 0.0017329 0)
(0.999484 0.00178915 0)
(0.999467 0.00184325 0)
(0.999479 0.00189377 0)
(0.999463 0.00194113 0)
(0.999468 0.00198669 0)
(0.999448 0.0020278 0)
(0.999442 0.00206791 0)
(0.999409 0.00210313 0)
(0.999381 0.00213827 0)
(0.999318 0.00216862 0)
(0.999239 0.00219931 0)
(0.999096 0.00222533 0)
(0.99887 0.00225181 0)
(0.998452 0.00227391 0)
(1.00001 2.16903e-05 0)
(0.999979 6.81384e-05 0)
(0.999986 0.000119724 0)
(0.999945 0.000174779 0)
(0.999946 0.00023519 0)
(0.999895 0.000298795 0)
(0.999899 0.000362023 0)
(0.999839 0.000430272 0)
(0.999843 0.000505532 0)
(0.999788 0.000578522 0)
(0.999794 0.000656676 0)
(0.999764 0.000736411 0)
(0.999787 0.00080707 0)
(0.999745 0.000886839 0)
(0.999763 0.000968325 0)
(0.999742 0.00103978 0)
(0.999765 0.00111524 0)
(0.999745 0.00118585 0)
(0.99976 0.00125335 0)
(0.999715 0.00132434 0)
(0.999704 0.00139269 0)
(0.999656 0.00145952 0)
(0.999659 0.00151758 0)
(0.999629 0.00157409 0)
(0.999635 0.0016287 0)
(0.99961 0.00168294 0)
(0.99962 0.00173548 0)
(0.999606 0.00178394 0)
(0.999619 0.0018306 0)
(0.999607 0.00187261 0)
(0.999613 0.00191397 0)
(0.999594 0.00195067 0)
(0.999589 0.00198708 0)
(0.999558 0.00201895 0)
(0.999531 0.00205075 0)
(0.999469 0.00207844 0)
(0.999391 0.00210617 0)
(0.999247 0.00213017 0)
(0.999022 0.00215417 0)
(0.998603 0.00217485 0)
(1.00001 2.51854e-05 0)
(0.999982 7.68591e-05 0)
(0.999992 0.000131747 0)
(0.999956 0.000188179 0)
(0.999961 0.000249516 0)
(0.999914 0.000313818 0)
(0.999922 0.000378991 0)
(0.99987 0.000447474 0)
(0.999881 0.000520698 0)
(0.999831 0.00059677 0)
(0.999843 0.000673668 0)
(0.999815 0.000752209 0)
(0.999842 0.000826426 0)
(0.999809 0.000902716 0)
(0.99983 0.000983656 0)
(0.99981 0.00105684 0)
(0.999838 0.00113029 0)
(0.99982 0.00120012 0)
(0.999843 0.00126617 0)
(0.999809 0.00133218 0)
(0.999807 0.00139739 0)
(0.999762 0.00146153 0)
(0.999764 0.00152057 0)
(0.999737 0.00157502 0)
(0.99975 0.00162679 0)
(0.999732 0.00167584 0)
(0.999746 0.00172395 0)
(0.999735 0.00176829 0)
(0.999749 0.00181129 0)
(0.999738 0.00185001 0)
(0.999746 0.0018876 0)
(0.999729 0.00192116 0)
(0.999725 0.00195367 0)
(0.999696 0.00198245 0)
(0.99967 0.00201022 0)
(0.99961 0.00203475 0)
(0.999532 0.00205837 0)
(0.99939 0.00207924 0)
(0.999166 0.00209928 0)
(0.998748 0.002117 0)
(1.00001 2.49126e-05 0)
(0.999984 8.28548e-05 0)
(0.999997 0.000141641 0)
(0.999964 0.000203245 0)
(0.999974 0.000264759 0)
(0.999931 0.000330201 0)
(0.999945 0.000394451 0)
(0.999899 0.000463455 0)
(0.999918 0.000531111 0)
(0.999876 0.000604434 0)
(0.999894 0.000677685 0)
(0.999872 0.000747406 0)
(0.999904 0.000815715 0)
(0.999882 0.000881396 0)
(0.999909 0.000949875 0)
(0.999894 0.00101286 0)
(0.999928 0.0010739 0)
(0.999913 0.00113325 0)
(0.999939 0.00118975 0)
(0.999912 0.00124711 0)
(0.999917 0.00130521 0)
(0.999877 0.00136586 0)
(0.99988 0.00142442 0)
(0.999853 0.00147891 0)
(0.999867 0.00152813 0)
(0.999854 0.00157324 0)
(0.999872 0.00161567 0)
(0.999864 0.00165584 0)
(0.99988 0.00169467 0)
(0.99987 0.00173179 0)
(0.999878 0.00176782 0)
(0.999861 0.00180222 0)