/*--------------------------------*- C++ -*----------------------------------*\
| =========                 |                                                 |
| \\      /  F ield         | OpenFOAM: The Open Source CFD Toolbox           |
|  \\    /   O peration     | Version:  2312                                  |
|   \\  /    A nd           | Website:  www.openfoam.com                      |
|    \\/     M anipulation  |                                                 |
\*---------------------------------------------------------------------------*/
FoamFile
{
    version     2.0;
    format      ascii;
    arch        "LSB;label=32;scalar=64";
    class       volScalarField;
    location    "0.1";
    object      p;
}
// * * * * * * * * * * * * * * * * * * * * * * * * * * * * * * * * * * * * * //

dimensions      [0 2 -2 0 0 0 0];

internalField   nonuniform List<scalar> 
5600
(
-2.43164e-10
0.00217127
0.00085662
0.00164469
0.00160426
0.00147123
0.00169204
0.00199625
0.0018521
0.00208593
0.0023635
0.00242239
0.00246863
0.00280056
0.00302341
0.00311666
0.00325088
0.0035433
0.00384764
0.0040341
0.004197
0.00448682
0.00489053
0.00519395
0.00541581
0.00567891
0.00604725
0.00644748
0.00692409
0.00739534
0.00781193
0.00829857
0.00893877
0.00954508
0.0101013
0.0105474
0.0109255
0.0112257
0.0114553
0.0113841
1.73515e-05
0.00215644
0.000864207
0.00164423
0.00160177
0.00147044
0.00169678
0.00199492
0.0018526
0.00208346
0.00236544
0.00242179
0.00247048
0.00279406
0.00302311
0.00311428
0.0032492
0.00354045
0.00384643
0.00403113
0.00419354
0.00447977
0.00485972
0.00518305
0.00540501
0.00566586
0.00603105
0.00642578
0.0068937
0.00733807
0.00770499
0.00810829
0.00855537
0.00900676
0.00941423
0.0097611
0.00998112
0.0100885
0.0100149
0.00961511
3.26903e-05
0.00216187
0.00086682
0.00163821
0.00160394
0.00147579
0.00170075
0.00199056
0.00185477
0.00208588
0.00236524
0.00242048
0.00247275
0.00279024
0.00302299
0.00311266
0.00324596
0.00354015
0.00384345
0.00402634
0.00418806
0.00446962
0.00484578
0.00516876
0.00539039
0.00564701
0.00600655
0.00639194
0.00684316
0.00726618
0.007608
0.00799263
0.00843964
0.00893024
0.0093232
0.00956371
0.00973928
0.00980223
0.00969762
0.00930559
5.95261e-05
0.0021563
0.00087169
0.001632
0.00160662
0.00147892
0.0017066
0.00198537
0.00185823
0.00208481
0.00236579
0.00241866
0.00247558
0.00278294
0.0030225
0.00310862
0.00324159
0.00353603
0.00383858
0.00401892
0.00417949
0.00445561
0.00482367
0.00514854
0.00536908
0.0056165
0.00596813
0.00634149
0.00677101
0.00716704
0.00746216
0.00777997
0.00813572
0.00851069
0.00880481
0.00897675
0.00906142
0.00902736
0.00883042
0.00837689
8.18859e-05
0.00215673
0.000875762
0.00162363
0.00161104
0.00148287
0.00171009
0.00198039
0.00186161
0.00208413
0.00236577
0.00241619
0.00247583
0.00277822
0.00302048
0.00310403
0.00323581
0.00353017
0.00383111
0.00400863
0.00416629
0.00443722
0.00479852
0.00512119
0.00533776
0.00557489
0.00591478
0.00627109
0.00667179
0.00704038
0.0072972
0.00756891
0.00788987
0.00822134
0.00847822
0.00862665
0.00868264
0.00863025
0.00842955
0.00799035
0.000111108
0.0021492
0.000883819
0.00161494
0.00161454
0.00148403
0.001716
0.00197529
0.00186472
0.00208031
0.00236714
0.00241322
0.00247498
0.00277135
0.00301655
0.00309773
0.00322733
0.00352146
0.00382057
0.00399522
0.00414874
0.00441336
0.00476581
0.00508529
0.00529723
0.00551746
0.00584169
0.00618113
0.00655039
0.00688839
0.00710881
0.00733542
0.00760287
0.00787854
0.00808781
0.00818419
0.00819268
0.00810336
0.00787385
0.00741785
0.000137569
0.0021444
0.000891825
0.00160372
0.00161955
0.00148587
0.00171914
0.00196974
0.00186769
0.00207673
0.00236668
0.00240946
0.00247136
0.00276427
0.00301085
0.00309063
0.00321695
0.00350893
0.00380628
0.00397784
0.00412532
0.00438272
0.00472768
0.00503953
0.00524327
0.0054457
0.00575007
0.00607037
0.00640498
0.00671091
0.00690114
0.00707927
0.00730293
0.0075439
0.00772655
0.00781019
0.00780997
0.00771943
0.00749709
0.00704829
0.000169787
0.00213219
0.00090428
0.00159179
0.00162391
0.00148505
0.00172418
0.00196476
0.00186975
0.00207047
0.00236634
0.00240633
0.00246612
0.00275562
0.00300263
0.0030813
0.0032033
0.00349381
0.00378801
0.00395645
0.00409634
0.00434514
0.00467918
0.00498192
0.00517736
0.00535646
0.00563494
0.00593656
0.00623664
0.00651056
0.00667139
0.00681028
0.00699852
0.0072029
0.00736404
0.0074368
0.00742797
0.00733954
0.0071347
0.00671879
0.000200373
0.0021211
0.000917499
0.00157693
0.00162964
0.0014848
0.00172592
0.00195918
0.00187183
0.00206431
0.00236311
0.00240201
0.00245808
0.00274432
0.00299345
0.00306999
0.00318717
0.00347206
0.00376452
0.00392937
0.00405998
0.00429887
0.00462207
0.00491303
0.0050957
0.00525222
0.00550242
0.00577897
0.00604274
0.00628171
0.00641822
0.00652452
0.00668447
0.00687769
0.00704138
0.0071305
0.00714636
0.00708344
0.00689394
0.00644749
0.000236357
0.00210229
0.000935415
0.001561
0.00163466
0.00148238
0.00172875
0.0019548
0.00187229
0.00205567
0.00235946
0.00239839
0.00244887
0.00272944
0.00298163
0.00305556
0.00316714
0.00344487
0.00373714
0.00389674
0.00401713
0.00424203
0.00455232
0.00482911
0.00499982
0.00513318
0.00534946
0.00560466
0.00583491
0.0060273
0.00612653
0.00618283
0.0062862
0.00643781
0.00659141
0.00669405
0.00675096
0.00681718
0.00698152
0.00737757
0.000271601
0.00208302
0.000955016
0.00154183
0.00164082
0.00148081
0.00172737
0.00194996
0.00187282
0.00204694
0.00235078
0.00239313
0.00243657
0.00271204
0.00296679
0.00303982
0.0031429
0.00341182
0.00370111
0.00385657
0.00396591
0.00417414
0.00446968
0.00473304
0.00488853
0.00499588
0.00517706
0.00540588
0.00561046
0.00577586
0.00586075
0.00590365
0.00599158
0.0061379
0.00630109
0.0064226
0.00650572
0.00659847
0.0067741
0.00713379
0.000312012
0.00205566
0.000979436
0.00152125
0.00164574
0.00147798
0.00172574
0.00194648
0.00187148
0.00203532
0.00234345
0.00238787
0.00242346
0.00268963
0.00294766
0.00302121
0.00311304
0.00337242
0.00365747
0.00381076
0.00390625
0.00409492
0.00437321
0.0046208
0.0047612
0.00484747
0.00499204
0.00519261
0.00537995
0.00552249
0.00559223
0.00562948
0.00571552
0.00586092
0.00601594
0.00613197
0.00621632
0.00632034
0.00651977
0.00691749
0.000352701
0.00202589
0.00100651
0.00149727
0.00165111
0.00147687
0.00171893
0.00194239
0.00187058
0.00202241
0.00232679
0.00237982
0.0024072
0.00266332
0.00292448
0.00299945
0.00307883
0.00332482
0.00360459
0.00375567
0.00383743
0.00400365
0.00426273
0.00449551
0.00462153
0.00468529
0.00479673
0.00497307
0.00514691
0.00527853
0.0053432
0.0053728
0.00544756
0.00557937
0.00572581
0.00584356
0.00593643
0.00605052
0.00625602
0.00665291
0.000398229
0.0019879
0.00103811
0.00147196
0.00165437
0.00147591
0.00171012
0.00193906
0.00186839
0.00200598
0.00231056
0.00237238
0.00238874
0.0026326
0.00289522
0.00297332
0.00303918
0.00326825
0.0035429
0.00369203
0.0037597
0.00389996
0.00413773
0.00435683
0.0044691
0.00451387
0.00459745
0.00474954
0.00491221
0.00503909
0.00509962
0.00511652
0.00517232
0.00529263
0.00543512
0.00555595
0.00565284
0.00576793
0.00596981
0.00636125
0.000445185
0.00194534
0.0010731
0.00144356
0.00165659
0.00147791
0.00169551
0.0019338
0.0018675
0.00198684
0.0022895
0.00236122
0.00236742
0.00259574
0.00286046
0.00294332
0.00299382
0.00320209
0.00346994
0.00361863
0.00367246
0.00378399
0.00399796
0.00420613
0.00431015
0.00433753
0.00439163
0.00451998
0.0046731
0.00479436
0.00485537
0.00486731
0.00490244
0.00500424
0.00514051
0.00526506
0.00536678
0.00548345
0.0056829
0.00607093
0.000496502
0.00189467
0.00111184
0.00141462
0.00165568
0.0014815
0.00167742
0.00192844
0.00186675
0.00196361
0.00226268
0.00234998
0.00234437
0.00255116
0.00281833
0.00290838
0.00294287
0.00312537
0.0033844
0.00353623
0.00357805
0.00365697
0.00384317
0.00404236
0.00414372
0.00415733
0.00418284
0.00428393
0.00442574
0.00454633
0.0046123
0.00462603
0.00464262
0.00471764
0.00484084
0.00496868
0.0050796
0.00520118
0.00540019
0.00578478
0.000550288
0.00183771
0.00115352
0.0013843
0.00165147
0.0014887
0.00165401
0.00191681
0.00186777
0.00193771
0.00222824
0.00233525
0.00232017
0.00249941
0.0027664
0.00286856
0.00288806
0.00303759
0.00328333
0.00344249
0.00347805
0.00352279
0.00367382
0.00386192
0.00396904
0.00397725
0.00397525
0.00404332
0.00417001
0.00429269
0.00436627
0.00438703
0.00439359
0.00444167
0.00454268
0.00466658
0.00478716
0.00491842
0.0051209
0.00550384
0.000607731
0.0017732
0.00119737
0.00135547
0.00164179
0.00149845
0.00162783
0.00189982
0.00186935
0.00190912
0.00218475
0.00231703
0.0022978
0.00244025
0.00270053
0.00282183
0.00283151
0.00294097
0.0031657
0.0033344
0.00337226
0.00338661
0.00349415
0.00366354
0.0037808
0.00379593
0.00377389
0.00380573
0.00390794
0.00402944
0.00411429
0.00414725
0.00415362
0.00418076
0.00425497
0.00436483
0.00448898
0.00463134
0.00484175
0.00522666
0.000667754
0.0017025
0.00124191
0.00132889
0.0016249
0.00151131
0.00159973
0.00187268
0.00187106
0.00188159
0.00213134
0.00229063
0.0022765
0.00237704
0.00261954
0.00276362
0.00277347
0.00283987
0.00303136
0.00320656
0.00325696
0.00325149
0.00331285
0.00345013
0.0035728
0.00360648
0.00358014
0.00357934
0.0036478
0.00375784
0.0038521
0.00390069
0.00391502
0.00393184
0.00398282
0.00407281
0.00419158
0.00434115
0.00456158
0.00495246
0.000730207
0.00162607
0.00128438
0.00130761
0.00159874
0.00152508
0.00157345
0.00183477
0.00186924
0.00185744
0.00207006
0.00225239
0.0022552
0.0023138
0.00252358
0.00268764
0.00271132
0.00274056
0.00288688
0.003057
0.00312599
0.00311652
0.00313749
0.00323297
0.00334598
0.00339994
0.00338647
0.00336708
0.00340027
0.0034859
0.00358022
0.00364292
0.00367042
0.0036876
0.00372418
0.00379543
0.00390323
0.0040535
0.00428117
0.00467881
0.000793652
0.00154652
0.00132202
0.00129303
0.00156258
0.00153758
0.00155154
0.00178558
0.0018595
0.00183913
0.0020052
0.00219767
0.00222686
0.00225405
0.00242013
0.00259072
0.00263627
0.00264441
0.00274072
0.00288749
0.00297328
0.00297423
0.00296938
0.00302203
0.0031103
0.00317414
0.00318145
0.00316251
0.00316961
0.00322495
0.00330558
0.00337442
0.00341543
0.00344016
0.00347228
0.00353106
0.0036273
0.00377342
0.00400382
0.0044064
0.000856626
0.00146668
0.00134823
0.00128664
0.0015193
0.0015428
0.00153586
0.00173109
0.0018372
0.00182481
0.00194207
0.00212506
0.00218442
0.00219842
0.00231604
0.00247293
0.00254126
0.00254747
0.00259971
0.00271015
0.00279869
0.00281649
0.00280373
0.00282156
0.00287833
0.00293578
0.00295935
0.00295273
0.00295043
0.00298007
0.00303914
0.00310283
0.00315188
0.00318638
0.00322141
0.00327499
0.00336272
0.00350303
0.00373281
0.00413796
0.000916553
0.00139146
0.00136037
0.00128834
0.00147331
0.00153642
0.00152649
0.00167569
0.00179986
0.00180678
0.00188291
0.00203992
0.00212366
0.00214081
0.00221534
0.00234352
0.00242421
0.0024395
0.00246392
0.00253488
0.0026096
0.00263992
0.00263189
0.00262983
0.00265665
0.00269742
0.00272517
0.00273093
0.00273087
0.00274672
0.00278569
0.00283733
0.00288655
0.00292805
0.00296872
0.00302257
0.00310635
0.00324216
0.00346978
0.00387543
0.000970902
0.00132495
0.00135622
0.00129493
0.00142963
0.00151605
0.00151657
0.00162381
0.00174778
0.00177762
0.00182815
0.00195119
0.00204369
0.00207176
0.0021179
0.0022113
0.00228861
0.00231484
0.00232713
0.00236525
0.00241745
0.00244836
0.00244791
0.00243899
0.00244491
0.00246636
0.00248838
0.00249994
0.00250493
0.00251629
0.00254259
0.00258203
0.00262652
0.00267035
0.00271569
0.00277226
0.00285557
0.00298913
0.00321487
0.00362012
0.00101704
0.00127074
0.00133796
0.00129855
0.00139093
0.00148393
0.00150096
0.00157639
0.00168637
0.00173451
0.00177327
0.00186272
0.00194899
0.00198723
0.00201893
0.0020805
0.00214296
0.00217365
0.00218264
0.00219941
0.00222851
0.00225081
0.0022533
0.00224358
0.00223802
0.00224353
0.00225544
0.00226595
0.00227377
0.00228466
0.00230486
0.00233583
0.0023745
0.00241746
0.0024653
0.00252471
0.00260929
0.00274249
0.00296732
0.00337218
0.00105293
0.00122888
0.00130921
0.00129521
0.00135779
0.00144388
0.00147578
0.00153121
0.00162055
0.00167651
0.00171214
0.00177497
0.00184602
0.0018872
0.00191247
0.00195046
0.00199375
0.00202059
0.0020282
0.00203266
0.00204338
0.00205343
0.00205296
0.00204275
0.00203165
0.00202663
0.00202841
0.00203397
0.00204141
0.00205237
0.00207009
0.0020964
0.00213071
0.00217174
0.00222028
0.00228164
0.00236792
0.00250188
0.00272676
0.00313163
0.00107752
0.0011967
0.00127475
0.0012822
0.00132671
0.0013994
0.00143981
0.00148387
0.00155265
0.00160706
0.00164169
0.00168591
0.00173869
0.0017753
0.00179649
0.00181865
0.0018439
0.00186168
0.00186575
0.00186271
0.00186062
0.00185869
0.00185196
0.00183934
0.00182481
0.00181325
0.00180722
0.00180681
0.00181131
0.001821
0.00183723
0.00186119
0.00189304
0.00193263
0.00198126
0.00204389
0.0021318
0.00226711
0.00249285
0.00289831
0.00109081
0.00117051
0.00123823
0.00125962
0.00129443
0.00135232
0.00139413
0.00143156
0.00148283
0.00152952
0.00156134
0.00159262
0.00162854
0.00165602
0.00167184
0.00168283
0.00169357
0.00170066
0.00169869
0.00168986
0.00167902
0.00166735
0.00165356
0.00163703
0.00161916
0.00160296
0.00159121
0.00158539
0.00158588
0.00159297
0.00160734
0.00162965
0.00166009
0.00169888
0.00174755
0.00181094
0.00189991
0.00203614
0.0022625
0.00266841
0.00109341
0.00114641
0.00120118
0.00122893
0.00125833
0.00130283
0.00134081
0.00137271
0.00141007
0.00144613
0.00147214
0.00149361
0.00151549
0.00153213
0.00154074
0.00154289
0.00154252
0.00153942
0.00153028
0.00151606
0.00149895
0.00148028
0.00146055
0.0014398
0.00141862
0.00139888
0.00138295
0.00137263
0.00136907
0.00137316
0.00138558
0.00140661
0.00143624
0.00147468
0.00152353
0.00158761
0.00167755
0.00181472
0.00204177
0.00244813
0.00108653
0.00112172
0.0011637
0.00119173
0.00121705
0.00125032
0.00128134
0.00130706
0.00133312
0.001358
0.00137613
0.00138897
0.00139939
0.00140562
0.00140628
0.00140064
0.00139147
0.00137908
0.00136222
0.00134182
0.00131827
0.0012928
0.00126654
0.00123988
0.00121352
0.00118899
0.00116818
0.00115286
0.00114462
0.00114489
0.00115467
0.00117442
0.00120425
0.00124437
0.00129632
0.00136445
0.00145884
0.00160037
0.00183136
0.00224112
0.00107115
0.00109435
0.00112508
0.00114945
0.00117027
0.00119405
0.0012168
0.00123527
0.00125158
0.00126586
0.0012752
0.00127952
0.00128039
0.00127762
0.00127109
0.00125947
0.00124533
0.00122789
0.00120788
0.00118544
0.00116023
0.00113339
0.00110533
0.00107625
0.00104682
0.00101823
0.000991678
0.000968824
0.000951597
0.000941781
0.000940719
0.000949284
0.000967891
0.000997252
0.00103902
0.00109766
0.00118342
0.00131744
0.00154245
0.00194851
0.00104815
0.00106302
0.00108406
0.00110263
0.00111799
0.00113341
0.00114742
0.00115793
0.00116527
0.00116977
0.00116999
0.0011659
0.00115756
0.0011457
0.00112978
0.00110992
0.00108698
0.0010608
0.00103267
0.00100223
0.00097011
0.000937165
0.000903515
0.000869978
0.000837345
0.000806343
0.000778283
0.000754903
0.000738037
0.000729798
0.000732257
0.000747124
0.000775618
0.000818419
0.000876802
0.000954267
0.00105948
0.00121183
0.00145263
0.00187093
0.00101812
0.00102723
0.00104033
0.00105228
0.00106151
0.00106916
0.00107488
0.00107733
0.00107658
0.00107257
0.00106537
0.00105464
0.00104095
0.001025
0.00100633
0.000986717
0.000964851
0.000942946
0.000920682
0.000898269
0.000876884
0.000856183
0.000836402
0.000817712
0.000799613
0.000781172
0.000761353
0.000738504
0.000710681
0.000675866
0.000632291
0.000578572
0.00051384
0.00043785
0.000349119
0.000243297
0.000110486
-6.99649e-05
-0.00034052
-0.000791114
0.000981935
0.000986348
0.000992452
0.000997365
0.000999645
0.000999537
0.000996774
0.000990838
0.000981255
0.000968377
0.000951687
0.000931726
0.000908133
0.000881621
0.00085238
0.000820317
0.000786659
0.000750819
0.000713938
0.000676318
0.00063794
0.000599797
0.000562149
0.000525514
0.000490832
0.000459089
0.000431473
0.000409674
0.000395589
0.000391077
0.000397893
0.000417506
0.000450359
0.000496499
0.000557053
0.000635836
0.000742
0.000895334
0.00113738
0.00155721
0.000941266
0.000942341
0.000942987
0.000941742
0.00093773
0.000930839
0.000921175
0.000908481
0.000892818
0.000874654
0.000853658
0.000831352
0.000806593
0.000781156
0.000754987
0.000727663
0.000701087
0.000674275
0.000647659
0.000621886
0.000596564
0.000571252
0.000545871
0.000519831
0.000491944
0.000460973
0.000425751
0.00038504
0.000337702
0.000283083
0.000221178
0.000152421
7.74524e-05
-4.07623e-06
-9.42434e-05
-0.000198415
-0.000327853
-0.000504407
-0.000770921
-0.00121671
0.000894741
0.000892286
0.000887224
0.000879155
0.000867706
0.000852976
0.00083491
0.000813613
0.00078902
0.00076117
0.000730825
0.000697243
0.000662149
0.000624592
0.000585401
0.000545579
0.000504073
0.000462415
0.000420772
0.00037905
0.000338009
0.00029845
0.000260758
0.000225674
0.000194559
0.000168787
0.0001495
0.000137965
0.000135401
0.000142447
0.000159013
0.000184167
0.000217375
0.000259006
0.000311087
0.000378901
0.000473698
0.000617335
0.000852639
0.00126893
0.000849776
0.000845348
0.000836675
0.000824058
0.000807749
0.000787931
0.000765128
0.000739468
0.000711652
0.000681983
0.000650786
0.000619077
0.000586272
0.000553748
0.000521329
0.000488833
0.00045748
0.000426511
0.000396041
0.000366581
0.000337636
0.000308773
0.000279866
0.000250352
0.000219145
0.000185083
0.000147117
0.000104062
5.47269e-05
-1.58644e-06
-6.48543e-05
-0.000134182
-0.000209054
-0.000289934
-0.000378997
-0.000481631
-0.000609049
-0.000783079
-0.00104665
-0.00148923
0.000794842
0.000787206
0.000773332
0.000754124
0.000730198
0.000702286
0.000670748
0.000636299
0.000599005
0.000559511
0.000518312
0.000475446
0.000432304
0.000388258
0.000344288
0.000300936
0.000257537
0.000215301
0.000174243
0.000134151
9.57421e-05
5.94506e-05
2.54326e-05
-5.63966e-06
-3.26886e-05
-5.46332e-05
-7.04233e-05
-7.88243e-05
-7.86762e-05
-6.93465e-05
-5.09039e-05
-2.41009e-05
1.04742e-05
5.315e-05
0.000105988
0.000174291
0.00026916
0.000412338
0.000646704
0.00106171
0.00075939
0.000750853
0.00073504
0.000713279
0.000686635
0.000655893
0.000621957
0.000585475
0.000547349
0.000508177
0.000468275
0.000428874
0.000389259
0.000351306
0.000314235
0.000278522
0.000245043
0.000212825
0.000182463
0.000154124
0.000127181
0.000101416
7.66808e-05
5.21346e-05
2.66896e-05
-7.59292e-07
-3.14305e-05
-6.68295e-05
-0.000108293
-0.000156605
-0.000211967
-0.000274009
-0.000342356
-0.000417389
-0.000501235
-0.000599277
-0.00072269
-0.000893308
-0.00115413
-0.00159477
0.000695668
0.0006838
0.00066267
0.000634058
0.000599324
0.000559856
0.000516558
0.000470794
0.000422739
0.000373647
0.000323578
0.000273598
0.000224527
0.000176415
0.000130281
8.62219e-05
4.40675e-05
4.79606e-06
-3.1967e-05
-6.62029e-05
-9.7359e-05
-0.000125518
-0.000150621
-0.000172119
-0.000189331
-0.00020161
-0.000208021
-0.000207381
-0.00019868
-0.00018141
-0.00015548
-0.000121182
-7.90794e-05
-2.92168e-05
3.00578e-05
0.000103693
0.00020245
0.000347821
0.000582465
0.000995678
0.0110565
0.0110161
0.011104
0.0110442
0.0107905
0.0103978
0.009959
0.00953501
0.00913952
0.00876343
0.00839994
0.00806548
0.0077813
0.00755482
0.00736059
0.00717212
0.00697371
0.00676517
0.00654987
0.00633179
0.00612538
0.00591245
0.00570167
0.005487
0.00526755
0.00506744
0.00484821
0.00464257
0.00443847
0.00423761
0.00406212
0.0038858
0.0037594
0.00357619
0.00339599
0.00323168
0.0029299
0.00265563
0.00233577
0.00192958
0.00173957
0.00173034
0.00148087
0.00100161
0.000641444
0.000331622
-3.43272e-05
-0.000438015
-0.000922987
-0.00142356
-0.00199024
-0.00264767
-0.00336619
-0.00420198
-0.00506132
-0.00593843
-0.00686682
-0.00732778
-0.00678982
-0.00576148
-0.00495576
-0.00467576
-0.00467459
-0.00471371
-0.00471959
-0.00471753
-0.004742
-0.00481272
-0.00492987
-0.00508166
-0.00525566
-0.00544459
-0.005646
-0.00585987
-0.00608674
-0.00632735
-0.00658228
-0.00685199
-0.00713696
-0.00743762
-0.00775448
-0.00808808
-0.00843896
-0.0088078
-0.0091952
-0.00960203
-0.0100287
-0.0104768
-0.0109459
-0.0114392
-0.0119538
-0.0124969
-0.0130603
-0.0136576
-0.0142758
-0.0149256
-0.0156092
-0.0162971
-0.017027
-0.0177271
0.00915773
0.00916399
0.00953363
0.00987627
0.0100286
0.00995537
0.00969623
0.00933774
0.00895508
0.00859077
0.00825448
0.00795089
0.00768379
0.00746038
0.00727056
0.00709571
0.00691244
0.00671838
0.00651156
0.00629229
0.00608466
0.00587261
0.00567102
0.00546006
0.00523947
0.00504157
0.00482207
0.00462018
0.00441752
0.00421844
0.0040429
0.00386455
0.00373851
0.00354839
0.00336622
0.00320507
0.00290269
0.00263368
0.002322
0.00190767
0.00172966
0.00171884
0.00145383
0.000974594
0.000626888
0.000320524
-4.6637e-05
-0.000454092
-0.000933665
-0.00143143
-0.00199679
-0.00264447
-0.00335469
-0.00418814
-0.00503045
-0.0058914
-0.00681888
-0.00728931
-0.00676248
-0.00574381
-0.00495263
-0.00467497
-0.00466873
-0.00470616
-0.00471834
-0.00471959
-0.00474497
-0.00481442
-0.00493041
-0.00508153
-0.00525544
-0.00544451
-0.00564602
-0.00585991
-0.00608676
-0.00632736
-0.00658228
-0.00685199
-0.00713696
-0.00743762
-0.00775448
-0.00808807
-0.00843896
-0.0088078
-0.0091952
-0.00960203
-0.0100287
-0.0104768
-0.0109459
-0.0114392
-0.0119537
-0.0124969
-0.0130603
-0.0136576
-0.0142758
-0.0149256
-0.0156092
-0.0162972
-0.017027
-0.0177273
0.00889267
0.0089414
0.00936609
0.00976578
0.00996929
0.00993651
0.00970048
0.00934502
0.00895255
0.0085758
0.00823406
0.00792966
0.00766127
0.00742896
0.00723003
0.00705087
0.0068702
0.00668048
0.00647839
0.00626074
0.00604529
0.00583718
0.00563493
0.00542839
0.00521079
0.00500564
0.00479837
0.00460401
0.00440656
0.004209
0.00403126
0.00384864
0.00369891
0.00350672
0.00331284
0.00312874
0.00285267
0.00258843
0.00229306
0.00194889
0.00174308
0.00164784
0.0013756
0.000950463
0.000616025
0.000292997
-7.72975e-05
-0.000481643
-0.000953542
-0.00144261
-0.00200585
-0.00263973
-0.00332432
-0.00413435
-0.00494365
-0.00573434
-0.00658414
-0.00704991
-0.00661138
-0.00569401
-0.00495959
-0.00469513
-0.00468661
-0.0047177
-0.00472016
-0.00471959
-0.00474528
-0.00481625
-0.00493259
-0.00508337
-0.00525654
-0.00544494
-0.00564611
-0.00585988
-0.00608674
-0.00632734
-0.00658227
-0.00685198
-0.00713695
-0.00743761
-0.00775447
-0.00808807
-0.00843895
-0.0088078
-0.00919519
-0.00960203
-0.0100287
-0.0104768
-0.0109459
-0.0114392
-0.0119537
-0.0124969
-0.0130603
-0.0136576
-0.0142758
-0.0149256
-0.0156092
-0.0162972
-0.0170272
-0.0177275
0.00794904
0.00799568
0.0084411
0.00889579
0.00918373
0.00925748
0.00913199
0.00887263
0.00855336
0.00822962
0.00792907
0.00766175
0.00742824
0.00722543
0.00704641
0.00688292
0.00672033
0.00654816
0.00636679
0.0061662
0.00596168
0.00575592
0.00555746
0.00536177
0.00515165
0.00495292
0.0047452
0.0045551
0.00436638
0.00416859
0.00398904
0.00380039
0.00364577
0.00345248
0.0032481
0.00306623
0.00280883
0.00254695
0.00227329
0.00194472
0.00170565
0.00158408
0.00132334
0.000929346
0.000593056
0.000261198
-0.000102116
-0.000507605
-0.000973493
-0.00144947
-0.00201161
-0.00262817
-0.00328119
-0.00407288
-0.0048475
-0.00557627
-0.0063884
-0.00687496
-0.00649943
-0.00565281
-0.00496261
-0.00470416
-0.00468158
-0.00470297
-0.00471343
-0.00471926
-0.00474954
-0.00482107
-0.00493618
-0.00508545
-0.00525759
-0.00544545
-0.00564641
-0.00586001
-0.00608676
-0.00632733
-0.00658225
-0.00685196
-0.00713693
-0.0074376
-0.00775446
-0.00808806
-0.00843894
-0.00880779
-0.00919519
-0.00960202
-0.0100287
-0.0104768
-0.0109459
-0.0114392
-0.0119537
-0.0124969
-0.0130603
-0.0136576
-0.0142758
-0.0149256
-0.0156092
-0.0162973
-0.0170273
-0.0177278
0.00758948
0.00765969
0.00813582
0.00862498
0.00894914
0.00905873
0.00896639
0.0087332
0.0084327
0.00812047
0.0078282
0.00756802
0.00734178
0.00714583
0.00697003
0.00680677
0.00664575
0.00647771
0.00630059
0.00611019
0.00590973
0.00570583
0.00550524
0.00531069
0.00511244
0.00491582
0.00471273
0.00452493
0.00434139
0.0041508
0.00396568
0.00377594
0.00360945
0.00341274
0.00320926
0.00301295
0.00276524
0.00251212
0.00224016
0.00194108
0.00171095
0.0015423
0.00126683
0.00089509
0.000570991
0.000234682
-0.000127582
-0.00053126
-0.000990316
-0.00145549
-0.00201118
-0.00261207
-0.00323658
-0.00400087
-0.0047441
-0.00541569
-0.00615554
-0.00661324
-0.00630437
-0.00556376
-0.0049472
-0.00471254
-0.00468958
-0.00470888
-0.00471103
-0.00471842
-0.00475102
-0.00482428
-0.0049395
-0.00508778
-0.00525883
-0.00544586
-0.00564632
-0.00585989
-0.00608669
-0.00632728
-0.0065822
-0.00685192
-0.0071369
-0.00743757
-0.00775444
-0.00808804
-0.00843893
-0.00880778
-0.00919518
-0.00960202
-0.0100287
-0.0104768
-0.0109459
-0.0114392
-0.0119537
-0.0124969
-0.0130603
-0.0136576
-0.0142758
-0.0149256
-0.0156092
-0.0162973
-0.0170274
-0.0177281
0.00701388
0.00708652
0.00757173
0.00807645
0.00842158
0.00855744
0.00849557
0.00829512
0.0080276
0.00774788
0.007487
0.00725752
0.00706102
0.00689325
0.00674442
0.0066034
0.0064619
0.00631049
0.00614836
0.00597298
0.00578688
0.005595
0.00539992
0.00521242
0.00502154
0.00483604
0.0046407
0.00445086
0.00427206
0.00408604
0.0039034
0.00370888
0.00353669
0.00334588
0.00313684
0.0029387
0.0027071
0.00245737
0.00219808
0.00192491
0.00167453
0.00147441
0.00120616
0.000861203
0.000544635
0.000199788
-0.000159372
-0.000556161
-0.00101115
-0.001463
-0.00200781
-0.00259719
-0.00318921
-0.00392254
-0.00463906
-0.00525269
-0.00593576
-0.00640966
-0.00618442
-0.00552365
-0.00495186
-0.00472146
-0.00468661
-0.0046945
-0.0047043
-0.00471692
-0.00475417
-0.00482888
-0.00494337
-0.00509032
-0.00526026
-0.00544669
-0.005647
-0.00586008
-0.00608669
-0.00632722
-0.00658214
-0.00685187
-0.00713685
-0.00743753
-0.0077544
-0.00808801
-0.00843891
-0.00880776
-0.00919516
-0.00960201
-0.0100287
-0.0104768
-0.0109459
-0.0114392
-0.0119537
-0.0124969
-0.0130603
-0.0136576
-0.0142758
-0.0149256
-0.0156092
-0.0162974
-0.0170276
-0.0177284
0.00664839
0.00672546
0.00721581
0.00772421
0.00807345
0.00821401
0.00815786
0.0079666
0.00771411
0.00745675
0.00722221
0.00702044
0.00685086
0.00670688
0.00657754
0.00645209
0.0063217
0.00617928
0.00602346
0.00585569
0.00567873
0.00549674
0.00531123
0.00512992
0.00494896
0.00477379
0.00458961
0.00440548
0.00422581
0.00404593
0.00386769
0.0036714
0.00349331
0.00330079
0.00309562
0.00289105
0.00266218
0.00242181
0.0021633
0.00190297
0.00165295
0.00143592
0.00116393
0.000828576
0.000519705
0.00017265
-0.000183731
-0.000573136
-0.00102564
-0.00146417
-0.00199641
-0.00257385
-0.00313466
-0.00383598
-0.00452205
-0.00508915
-0.00571704
-0.00616659
-0.00598408
-0.0054084
-0.00491133
-0.00471185
-0.00468446
-0.0046944
-0.00469848
-0.00471422
-0.00475457
-0.00483118
-0.00494593
-0.0050921
-0.00526106
-0.00544667
-0.00564647
-0.00585978
-0.00608651
-0.0063271
-0.00658205
-0.00685179
-0.00713678
-0.00743748
-0.00775436
-0.00808798
-0.00843888
-0.00880774
-0.00919515
-0.00960199
-0.0100287
-0.0104768
-0.0109459
-0.0114392
-0.0119537
-0.0124969
-0.0130603
-0.0136576
-0.0142758
-0.0149257
-0.0156092
-0.0162975
-0.0170278
-0.0177287
0.00634728
0.00644897
0.00695734
0.00746213
0.00778905
0.00789451
0.00780279
0.00758876
0.0073316
0.00708378
0.00687101
0.00669924
0.00656267
0.00644849
0.00634346
0.00623617
0.00611955
0.00598926
0.00584508
0.00568984
0.00552439
0.00535459
0.00517927
0.00500801
0.00483622
0.00466888
0.00449537
0.00431376
0.00413618
0.00395631
0.00378229
0.00359073
0.00340522
0.00321778
0.00301708
0.00281017
0.00259151
0.00235941
0.00210617
0.00186304
0.00161224
0.00137349
0.00110298
0.000784299
0.000483391
0.000136011
-0.000218601
-0.000598584
-0.00104385
-0.00147165
-0.00198592
-0.00254991
-0.00308431
-0.00374602
-0.00440528
-0.00493293
-0.00550162
-0.00594556
-0.00584669
-0.00536324
-0.004913
-0.00471973
-0.00468129
-0.00468197
-0.00469221
-0.00471278
-0.00475735
-0.00483563
-0.00494999
-0.00509497
-0.00526287
-0.00544781
-0.00564729
-0.00586003
-0.00608649
-0.00632699
-0.00658193
-0.00685168
-0.0071367
-0.00743741
-0.0077543
-0.00808793
-0.00843884
-0.00880771
-0.00919512
-0.00960198
-0.0100287
-0.0104768
-0.0109459
-0.0114392
-0.0119537
-0.0124969
-0.0130603
-0.0136577
-0.0142758
-0.0149257
-0.0156093
-0.0162975
-0.017028
-0.017729
0.0060112
0.00605731
0.00649994
0.00694799
0.00724158
0.00734529
0.00728275
0.00711828
0.00691839
0.00672725
0.00656411
0.00643151
0.00632119
0.00622127
0.00612192
0.00601761
0.00590461
0.00578204
0.00564926
0.00550856
0.00535918
0.0052058
0.00504732
0.00488995
0.00473096
0.0045735
0.00441017
0.00423682
0.0040644
0.00388815
0.00371885
0.00353415
0.00334895
0.00315957
0.00296327
0.00275819
0.00253813
0.00231421
0.00206442
0.00182623
0.00157703
0.00132758
0.0010622
0.000750259
0.000454061
0.000110788
-0.000244246
-0.000611904
-0.00105177
-0.00147106
-0.00196316
-0.00251591
-0.00302413
-0.00364557
-0.00427899
-0.00476877
-0.00528763
-0.0057147
-0.00565284
-0.00523424
-0.0048501
-0.00469052
-0.00466509
-0.00467092
-0.00468123
-0.00470643
-0.00475512
-0.00483594
-0.0049511
-0.00509572
-0.00526287
-0.00544716
-0.00564639
-0.00585945
-0.00608615
-0.00632677
-0.00658175
-0.00685154
-0.00713658
-0.00743731
-0.00775423
-0.00808787
-0.0084388
-0.00880767
-0.00919509
-0.00960195
-0.0100287
-0.0104768
-0.0109459
-0.0114391
-0.0119537
-0.0124969
-0.0130603
-0.0136577
-0.0142758
-0.0149257
-0.0156093
-0.0162976
-0.0170282
-0.0177294
0.00775881
0.00766878
0.00716718
0.00664337
0.00625847
0.00604817
0.00599273
0.0060321
0.0061024
0.00615845
0.00617727
0.0061513
0.0060847
0.00598955
0.00587838
0.00576135
0.00564342
0.00552646
0.00540706
0.00528457
0.00515615
0.00502399
0.00488605
0.00474414
0.00459743
0.00444748
0.00429181
0.00412386
0.00395481
0.00378272
0.0036141
0.003437
0.00325446
0.0030646
0.00287411
0.00267368
0.00245852
0.00224382
0.00200055
0.00176846
0.00152527
0.00126814
0.00100332
0.00070182
0.00041131
7.3486e-05
-0.000278763
-0.000636041
-0.00106512
-0.00147569
-0.00194616
-0.00248134
-0.00296853
-0.00354881
-0.00415141
-0.00461542
-0.00508542
-0.00549282
-0.00549662
-0.0051725
-0.00484315
-0.00469442
-0.00466265
-0.00466295
-0.00467698
-0.00470549
-0.00475788
-0.00484044
-0.00495543
-0.00509901
-0.00526516
-0.00544914
-0.00564743
-0.00585978
-0.00608607
-0.00632656
-0.00658155
-0.00685136
-0.00713643
-0.00743719
-0.00775413
-0.00808779
-0.00843873
-0.00880763
-0.00919506
-0.00960192
-0.0100287
-0.0104768
-0.0109459
-0.0114391
-0.0119537
-0.0124969