/*--------------------------------*- C++ -*----------------------------------*\
| =========                 |                                                 |
| \\      /  F ield         | OpenFOAM: The Open Source CFD Toolbox           |
|  \\    /   O peration     | Version:  2312                                  |
|   \\  /    A nd           | Website:  www.openfoam.com                      |
|    \\/     M anipulation  |                                                 |
\*---------------------------------------------------------------------------*/
FoamFile
{
    version     2.0;
    format      ascii;
    arch        "LSB;label=32;scalar=64";
    class       surfaceScalarField;
    location    "0.1";
    object      phi;
}
// * * * * * * * * * * * * * * * * * * * * * * * * * * * * * * * * * * * * * //

dimensions      [0 3 -1 0 0 0 0];

oriented        oriented;

internalField   nonuniform List<scalar> 
11020
(
3.89563e-06
-4.02291e-07
3.87224e-06
5.81753e-07
3.88196e-06
-2.62555e-07
3.88417e-06
-9.77604e-08
3.87536e-06
2.11808e-07
3.87555e-06
6.07067e-08
3.8796e-06
-2.15635e-07
3.87953e-06
-3.70205e-08
3.87619e-06
1.09511e-07
3.87523e-06
1.07229e-07
3.87549e-06
-4.6226e-08
3.8764e-06
-9.79572e-08
3.87586e-06
-7.06184e-08
3.87523e-06
1.98905e-08
3.87387e-06
6.21372e-08
3.87357e-06
6.67722e-08
3.87294e-06
2.50443e-08
3.87278e-06
-1.20746e-08
3.87192e-06
-4.27196e-08
3.87155e-06
-4.53167e-08
3.87086e-06
-3.63505e-08
3.86992e-06
-1.4344e-08
3.8689e-06
1.45484e-09
3.86855e-06
1.65366e-08
3.86769e-06
2.47678e-08
3.86691e-06
3.06485e-08
3.86587e-06
2.66975e-08
3.8649e-06
2.0347e-08
3.86415e-06
1.34627e-08
3.86321e-06
9.8376e-09
3.86202e-06
4.54343e-09
3.86085e-06
1.65396e-09
3.85913e-06
-8.28012e-10
3.8572e-06
-2.41768e-09
3.85487e-06
-2.69298e-09
3.85265e-06
-1.50064e-09
3.85043e-06
-1.82538e-10
3.84814e-06
2.45236e-09
3.84542e-06
5.01787e-09
8.18125e-09
3.84225e-06
4.18843e-06
-4.0486e-07
4.19474e-06
5.75445e-07
4.18985e-06
-2.57664e-07
4.18902e-06
-9.69316e-08
4.18957e-06
2.11251e-07
4.19403e-06
5.62486e-08
4.18465e-06
-2.06256e-07
4.18479e-06
-3.71523e-08
4.18645e-06
1.07851e-07
4.19319e-06
1.00482e-07
4.18879e-06
-4.18267e-08
4.18482e-06
-9.39868e-08
4.17925e-06
-6.50446e-08
4.18126e-06
1.78835e-08
4.18295e-06
6.04394e-08
4.18759e-06
6.21405e-08
4.18762e-06
2.50123e-08
4.18693e-06
-1.13865e-08
4.18256e-06
-3.83467e-08
4.17952e-06
-4.22826e-08
4.17616e-06
-3.2993e-08
4.17436e-06
-1.25371e-08
4.17327e-06
2.53861e-09
4.17448e-06
1.53277e-08
4.1748e-06
2.44519e-08
4.17602e-06
2.94228e-08
4.17653e-06
2.6193e-08
4.17668e-06
2.01936e-08
4.17639e-06
1.37599e-08
4.17581e-06
1.04121e-08
4.17446e-06
5.89427e-09
4.17289e-06
3.22306e-09
4.17071e-06
1.35298e-09
4.1686e-06
-3.0517e-10
4.16603e-06
-1.20815e-10
4.16391e-06
6.18327e-10
4.16174e-06
1.97928e-09
4.16036e-06
3.84159e-09
4.15967e-06
5.70575e-09
7.94852e-09
4.1599e-06
4.51045e-06
-3.95244e-07
4.53227e-06
5.53621e-07
4.5195e-06
-2.44892e-07
4.51419e-06
-9.16279e-08
4.52552e-06
1.99923e-07
4.53035e-06
5.14243e-08
4.51345e-06
-1.89358e-07
4.51174e-06
-3.54471e-08
4.51974e-06
9.98494e-08
4.52946e-06
9.07635e-08
4.5238e-06
-3.61617e-08
4.51534e-06
-8.55253e-08
4.50766e-06
-5.73642e-08
4.51019e-06
1.53531e-08
4.51555e-06
5.50757e-08
4.52236e-06
5.53313e-08
4.52379e-06
2.35838e-08
4.52205e-06
-9.65244e-09
4.51617e-06
-3.24635e-08
4.51076e-06
-3.68722e-08
4.50576e-06
-2.79897e-08
4.50367e-06
-1.04483e-08
4.50286e-06
3.34434e-09
4.50423e-06
1.39626e-08
4.50574e-06
2.29425e-08
4.50839e-06
2.67731e-08
4.5104e-06
2.41796e-08
4.51134e-06
1.92508e-08
4.51121e-06
1.3889e-08
4.51068e-06
1.09408e-08
4.50919e-06
7.38959e-09
4.50734e-06
5.06947e-09
4.50494e-06
3.75143e-09
4.50236e-06
2.27677e-09
4.49959e-06
2.64955e-09
4.49718e-06
3.02563e-09
4.49494e-06
4.22705e-09
4.49323e-06
5.55008e-09
4.49207e-06
6.86128e-09
8.2942e-09
4.49173e-06
4.86707e-06
-3.81363e-07
4.89282e-06
5.27863e-07
4.8784e-06
-2.30469e-07
4.8712e-06
-8.44289e-08
4.88578e-06
1.85349e-07
4.89086e-06
4.63396e-08
4.87265e-06
-1.7115e-07
4.86995e-06
-3.27454e-08
4.87937e-06
9.04282e-08
4.88956e-06
8.05734e-08
4.88418e-06
-3.07746e-08
4.8748e-06
-7.61526e-08
4.86708e-06
-4.96394e-08
4.86919e-06
1.32374e-08
4.87521e-06
4.90576e-08
4.88191e-06
4.8628e-08
4.88393e-06
2.15724e-08
4.88188e-06
-7.61129e-09
4.87633e-06
-2.69118e-08
4.87036e-06
-3.08946e-08
4.86544e-06
-2.3073e-08
4.86314e-06
-8.15067e-09
4.86242e-06
4.06508e-09
4.86309e-06
1.32972e-08
4.86501e-06
2.10182e-08
4.86777e-06
2.40148e-08
4.86978e-06
2.21637e-08
4.8705e-06
1.85311e-08
4.87029e-06
1.41061e-08
4.86956e-06
1.16726e-08
4.86824e-06
8.69986e-09
4.86659e-06
6.72629e-09
4.86459e-06
5.75221e-09
4.86234e-06
4.52165e-09
4.86009e-06
4.89748e-09
4.85803e-06
5.09425e-09
4.85635e-06
5.90676e-09
4.85508e-06
6.81578e-09
4.8543e-06
7.638e-09
8.54901e-09
4.85405e-06
5.25525e-06
-3.65968e-07
5.28251e-06
5.00603e-07
5.26753e-06
-2.15486e-07
5.25993e-06
-7.6828e-08
5.27501e-06
1.70265e-07
5.28037e-06
4.0979e-08
5.26197e-06
-1.5275e-07
5.25905e-06
-2.98177e-08
5.26848e-06
8.09973e-08
5.27869e-06
7.03618e-08
5.27345e-06
-2.55387e-08
5.26403e-06
-6.67349e-08
5.25648e-06
-4.20897e-08
5.25837e-06
1.13499e-08
5.26427e-06
4.31637e-08
5.27072e-06
4.21724e-08
5.27274e-06
1.95566e-08
5.27067e-06
-5.54818e-09
5.2653e-06
-2.15364e-08
5.25942e-06
-2.50142e-08
5.25459e-06
-1.82404e-08
5.25224e-06
-5.80179e-09
5.25149e-06
4.80872e-09
5.25208e-06
1.27094e-08
5.25378e-06
1.93163e-08
5.25616e-06
2.16338e-08
5.25791e-06
2.04175e-08
5.25868e-06
1.77651e-08
5.25854e-06
1.42427e-08
5.2578e-06
1.24114e-08
5.25651e-06
9.98766e-09
5.25488e-06
8.3627e-09
5.25298e-06
7.64667e-09
5.25084e-06
6.66239e-09
5.24878e-06
6.9601e-09
5.24693e-06
6.94178e-09
5.24536e-06
7.47873e-09
5.2442e-06
7.97438e-09
5.24341e-06
8.42443e-09
8.90496e-09
5.24306e-06
5.67525e-06
-3.49754e-07
5.70323e-06
4.72618e-07
5.68808e-06
-2.00341e-07
5.68089e-06
-6.963e-08
5.69533e-06
1.55825e-07
5.70061e-06
3.56974e-08
5.68309e-06
-1.35235e-07
5.68015e-06
-2.68724e-08
5.68899e-06
7.21575e-08
5.69839e-06
6.09639e-08
5.69362e-06
-2.07681e-08
5.68467e-06
-5.77945e-08
5.678e-06
-3.54165e-08
5.6794e-06
9.95561e-09
5.68473e-06
3.78337e-08
5.69027e-06
3.66305e-08
5.69208e-06
1.77403e-08
5.69007e-06
-3.53535e-09
5.68525e-06
-1.67194e-08
5.67989e-06
-1.96504e-08
5.67553e-06
-1.38842e-08
5.67328e-06
-3.54325e-09
5.67244e-06
5.64685e-09
5.67268e-06
1.2471e-08
5.67403e-06
1.79589e-08
5.67594e-06
1.97296e-08
5.67721e-06
1.91466e-08
5.6776e-06
1.73771e-08
5.67731e-06
1.45282e-08
5.67657e-06
1.31555e-08
5.67532e-06
1.12306e-08
5.67384e-06
9.85056e-09
5.67217e-06
9.31356e-09
5.67037e-06
8.4603e-09
5.6687e-06
8.63306e-09
5.66718e-06
8.45545e-09
5.66596e-06
8.70271e-09
5.66508e-06
8.85755e-09
5.66449e-06
9.00934e-09
9.11713e-09
5.66428e-06
6.1288e-06
-3.32684e-07
6.15775e-06
4.43664e-07
6.14226e-06
-1.84842e-07
6.13535e-06
-6.27207e-08
6.14943e-06
1.41744e-07
6.1547e-06
3.04273e-08
6.13763e-06
-1.18168e-07
6.13462e-06
-2.38619e-08
6.14316e-06
6.36212e-08
6.1521e-06
5.2023e-08
6.1476e-06
-1.62727e-08
6.13883e-06
-4.90253e-08
6.13261e-06
-2.91966e-08
6.13374e-06
8.82381e-09
6.13872e-06
3.28569e-08
6.14382e-06
3.15316e-08
6.14545e-06
1.61133e-08
6.14349e-06
-1.5803e-09
6.13887e-06
-1.20927e-08
6.1338e-06
-1.45854e-08
6.12963e-06
-9.71426e-09
6.12736e-06
-1.27586e-09
6.12645e-06
6.5554e-09
6.12671e-06
1.22168e-08
6.12778e-06
1.68836e-08
6.12921e-06
1.83056e-08
6.13026e-06
1.80951e-08
6.13063e-06
1.70046e-08
6.13038e-06
1.47823e-08
6.12969e-06
1.38434e-08
6.12854e-06
1.23837e-08
6.12716e-06
1.12291e-08
6.12557e-06
1.09015e-08
6.12387e-06
1.01565e-08
6.12224e-06
1.02681e-08
6.12078e-06
9.91676e-09
6.11956e-06
9.92277e-09
6.11867e-06
9.74435e-09
6.11809e-06
9.58852e-09
9.24836e-09
6.11796e-06
6.61878e-06
-3.14903e-07
6.64827e-06
4.14174e-07
6.6327e-06
-1.6927e-07
6.62643e-06
-5.6453e-08
6.63961e-06
1.28561e-07
6.6446e-06
2.54443e-08
6.62877e-06
-1.02343e-07
6.62573e-06
-2.082e-08
6.63364e-06
5.57054e-08
6.64151e-06
4.4154e-08
6.63755e-06
-1.23079e-08
6.62941e-06
-4.08853e-08
6.62401e-06
-2.37951e-08
6.62482e-06
8.01383e-09
6.62899e-06
2.86877e-08
6.63329e-06
2.72315e-08
6.63448e-06
1.49217e-08
6.63274e-06
1.55386e-10
6.62853e-06
-7.88499e-09
6.62416e-06
-1.02137e-08
6.62034e-06
-5.88989e-09
6.61833e-06
7.32874e-10
6.61727e-06
7.61316e-09
6.61728e-06
1.22105e-08
6.61791e-06
1.62534e-08
6.61897e-06
1.72494e-08
6.61963e-06
1.74256e-08
6.61978e-06
1.68584e-08
6.61931e-06
1.52529e-08
6.61866e-06
1.44916e-08
6.61753e-06
1.35192e-08
6.61628e-06
1.24791e-08
6.61487e-06
1.23034e-08
6.61339e-06
1.16389e-08
6.61197e-06
1.16857e-08
6.61067e-06
1.12238e-08
6.60954e-06
1.10536e-08
6.60866e-06
1.06241e-08
6.60785e-06
1.03913e-08
9.76892e-09
6.60733e-06
7.14785e-06
-2.96325e-07
7.1781e-06
3.83926e-07
7.16231e-06
-1.5348e-07
7.15649e-06
-5.06346e-08
7.1691e-06
1.15957e-07
7.1739e-06
2.06406e-08
7.15891e-06
-8.73529e-08
7.1557e-06
-1.76112e-08
7.16327e-06
4.81333e-08
7.1705e-06
3.69263e-08
7.16692e-06
-8.72241e-09
7.15907e-06
-3.30381e-08
7.15407e-06
-1.87942e-08
7.15465e-06
7.43659e-09
7.1584e-06
2.49333e-08
7.16218e-06
2.34476e-08
7.16327e-06
1.38388e-08
7.16151e-06
1.91351e-09
7.1576e-06
-3.98115e-09
7.15346e-06
-6.06816e-09
7.14988e-06
-2.30951e-09
7.14785e-06
2.75928e-09
7.14673e-06
8.73166e-09
7.14666e-06
1.228e-08
7.14711e-06
1.58088e-08
7.1478e-06
1.65598e-08
7.14836e-06
1.6863e-08
7.14863e-06
1.65937e-08
7.14834e-06
1.55431e-08
7.14782e-06
1.50075e-08
7.14674e-06
1.45995e-08
7.1455e-06
1.37133e-08
7.14402e-06
1.37847e-08
7.1424e-06
1.32657e-08
7.14073e-06
1.33554e-08
7.13909e-06
1.28577e-08
7.13756e-06
1.25911e-08
7.13631e-06
1.18739e-08
7.13582e-06
1.08791e-08
9.43201e-09
7.13616e-06
7.71939e-06
-2.77107e-07
7.74997e-06
3.53346e-07
7.73421e-06
-1.37724e-07
7.72916e-06
-4.55815e-08
7.74074e-06
1.04373e-07
7.74507e-06
1.63133e-08
7.73158e-06
-7.3861e-08
7.72833e-06
-1.43644e-08
7.73525e-06
4.12167e-08
7.74133e-06
3.08392e-08
7.73823e-06
-5.61642e-09
7.73114e-06
-2.59498e-08
7.72685e-06
-1.45096e-08
7.72715e-06
7.14432e-09
7.73021e-06
2.18728e-08
7.73301e-06
2.06404e-08
7.73392e-06
1.29328e-08
7.73208e-06
3.75126e-09
7.72888e-06
-7.79107e-10
7.72505e-06
-2.23886e-09
7.72211e-06
6.35095e-10
7.72007e-06
4.79412e-09
7.71911e-06
9.69098e-09
7.71864e-06
1.27486e-08
7.71887e-06
1.55817e-08
7.71908e-06
1.63481e-08
7.7193e-06
1.66488e-08
7.71912e-06
1.67656e-08
7.71868e-06
1.59888e-08
7.71834e-06
1.535e-08
7.71798e-06
1.49585e-08
7.71762e-06
1.40734e-08
7.71755e-06
1.38547e-08
7.71762e-06
1.31931e-08
7.71798e-06
1.29914e-08
7.71846e-06
1.2386e-08
7.71906e-06
1.19876e-08
7.71956e-06
1.13776e-08
7.7195e-06
1.09377e-08
1.01217e-08
7.71881e-06
8.33656e-06
-2.57208e-07
8.3676e-06
3.22305e-07
8.35181e-06
-1.21929e-07
8.34732e-06
-4.10944e-08
8.35817e-06
9.35243e-08
8.36211e-06
1.23698e-08
8.34979e-06
-6.15381e-08
8.34637e-06
-1.09437e-08
8.35281e-06
3.47749e-08
8.35822e-06
2.54276e-08
8.35545e-06
-2.84439e-09
8.34885e-06
-1.93456e-08
8.34484e-06
-1.05003e-08
8.34496e-06
7.02037e-09
8.34754e-06
1.92977e-08
8.3499e-06
1.82726e-08
8.35061e-06
1.22256e-08
8.34886e-06
5.50294e-09
8.34591e-06
2.17051e-09
8.34231e-06
1.36116e-09
8.33959e-06
3.35766e-09
8.33756e-06
6.81868e-09
8.33658e-06
1.06765e-08
8.336e-06
1.33306e-08
8.33612e-06
1.54546e-08
8.3362e-06
1.62685e-08
8.33645e-06
1.6402e-08
8.33651e-06
1.67006e-08
8.33632e-06
1.6184e-08
8.33595e-06
1.57208e-08
8.33553e-06
1.53714e-08
8.33509e-06
1.45145e-08
8.33491e-06
1.40364e-08
8.33486e-06
1.32404e-08
8.33504e-06
1.28181e-08
8.33517e-06
1.22488e-08
8.33542e-06
1.1738e-08
8.33567e-06
1.11311e-08
8.3361e-06
1.05039e-08
9.79385e-09
8.33643e-06
9.00325e-06
-2.36807e-07
9.03435e-06
2.91206e-07
9.01872e-06
-1.06302e-07
9.01504e-06
-3.74192e-08
9.02486e-06
8.37063e-08
9.02813e-06
9.10492e-09
9.01744e-06
-5.08488e-08
9.01406e-06
-7.56891e-09
9.01973e-06
2.91114e-08
9.02413e-06
2.10255e-08
9.0217e-06
-4.18988e-10
9.01588e-06
-1.35266e-08
9.01251e-06
-7.12349e-09
9.01237e-06
7.156e-09
9.01433e-06
1.73363e-08
9.01588e-06
1.6727e-08
9.01624e-06
1.18669e-08
9.01466e-06
7.07569e-09
9.01204e-06
4.79564e-09
9.00902e-06
4.37535e-09
9.00657e-06
5.80882e-09
9.00482e-06
8.57345e-09
9.00378e-06
1.17194e-08
9.00314e-06
1.39688e-08
9.00296e-06
1.56358e-08
9.00287e-06
1.63529e-08
9.00283e-06
1.64432e-08
9.0028e-06
1.67286e-08
9.00265e-06
1.63382e-08
9.0026e-06
1.57732e-08
9.00262e-06
1.53459e-08
9.00262e-06
1.45213e-08
9.00259e-06
1.40596e-08
9.00246e-06
1.33714e-08
9.00236e-06
1.29146e-08
9.00233e-06
1.22884e-08
9.00235e-06
1.17132e-08
9.00234e-06
1.11414e-08
9.00229e-06
1.05511e-08
1.00866e-08
9.002e-06
9.72322e-06
-2.15929e-07
9.75439e-06
2.60038e-07
9.73895e-06
-9.08551e-08
9.73588e-06
-3.43521e-08
9.74491e-06
7.46737e-08
9.74758e-06
6.43565e-09
9.73825e-06
-4.15211e-08
9.73482e-06
-4.13676e-09
9.73978e-06
2.41468e-08
9.74363e-06
1.71822e-08
9.74146e-06
1.75108e-09
9.73616e-06
-8.22813e-09
9.73305e-06
-4.01774e-09
9.73271e-06
7.50346e-09
9.73427e-06
1.57764e-08
9.73537e-06
1.56222e-08
9.73558e-06
1.16591e-08
9.73409e-06
8.56366e-09
9.73168e-06
7.20922e-09
9.72893e-06
7.12116e-09
9.72661e-06
8.12854e-09
9.72496e-06
1.02245e-08
9.7239e-06
1.27792e-08
9.72323e-06
1.4636e-08
9.72299e-06
1.58768e-08
9.72292e-06
1.64272e-08
9.72292e-06
1.6438e-08
9.72305e-06
1.66009e-08
9.72305e-06
1.63374e-08
9.72301e-06
1.58181e-08
9.72294e-06
1.54152e-08
9.7228e-06
1.46605e-08
9.72272e-06
1.41402e-08
9.72259e-06
1.35042e-08
9.72254e-06
1.2961e-08
9.72242e-06
1.2409e-08
9.72231e-06
1.18228e-08
9.72217e-06
1.12788e-08
9.72205e-06
1.06704e-08
1.01596e-08
9.72198e-06
1.05009e-05
-1.94782e-07
1.05318e-05
2.29181e-07
1.05167e-05
-7.57623e-08
1.05144e-05
-3.20251e-08
1.05225e-05
6.65373e-08
1.05243e-05
4.62124e-09
1.05166e-05
-3.37814e-08
1.05134e-05
-9.25216e-10
1.05174e-05
2.01363e-08
1.05205e-05
1.4093e-08
1.05185e-05
3.71072e-09
1.05139e-05
-3.66475e-09
1.05113e-05
-1.33445e-09
1.05109e-05
7.88754e-09
1.05117e-05
1.49205e-08
1.05123e-05
1.50131e-08
1.05122e-05
1.18519e-08
1.05108e-05
9.87746e-09
1.05087e-05
9.33094e-09
1.05064e-05
9.45855e-09
1.05044e-05
1.01381e-08
1.05029e-05
1.16829e-08
1.05019e-05
1.37646e-08
1.05012e-05
1.53401e-08
1.05009e-05
1.624e-08
1.05007e-05
1.66136e-08
1.05006e-05
1.65483e-08
1.05005e-05
1.66121e-08
1.05005e-05
1.64325e-08
1.05003e-05
1.59355e-08
1.05003e-05
1.55002e-08
1.05002e-05
1.475e-08
1.05002e-05
1.41348e-08
1.05001e-05
1.35602e-08
1.05001e-05
1.29916e-08
1.05e-05
1.24664e-08
1.05e-05
1.18593e-08
1.05e-05
1.13033e-08
1.04999e-05
1.06873e-08
1.01588e-08
1.04999e-05
1.13409e-05
-1.73475e-07
1.13713e-05
1.98761e-07
1.13566e-05
-6.11269e-08
1.13548e-05
-3.02111e-08
1.13623e-05
5.90563e-08
1.13633e-05
3.58989e-09
1.13569e-05
-2.73716e-08
1.13539e-05
2.11581e-09
1.1357e-05
1.70438e-08
1.13596e-05
1.14458e-08
1.1358e-05
5.38703e-09
1.13538e-05
4.97128e-10
1.13513e-05
1.15113e-09
1.13508e-05
8.36378e-09
1.13513e-05
1.44627e-08
1.13516e-05
1.47296e-08
1.13512e-05
1.22219e-08
1.135e-05
1.10462e-08
1.13481e-05
1.12627e-08
1.1346e-05
1.1595e-08
1.13441e-05
1.20036e-08
1.13428e-05
1.30351e-08
1.13418e-05
1.46818e-08
1.13412e-05
1.60175e-08
1.13407e-05
1.66631e-08
1.13405e-05
1.68123e-08
1.13404e-05
1.66734e-08
1.13404e-05
1.66229e-08
1.13404e-05
1.64674e-08
1.13403e-05
1.59958e-08
1.13403e-05
1.55267e-08
1.13402e-05
1.48467e-08
1.13402e-05
1.41606e-08
1.13401e-05
1.35971e-08
1.13401e-05
1.30073e-08
1.13401e-05
1.2468e-08
1.13401e-05
1.18579e-08
1.13401e-05
1.12741e-08
1.13401e-05
1.06707e-08
1.00759e-08
1.13402e-05
1.22481e-05
-1.52259e-07
1.22777e-05
1.69154e-07
1.22637e-05
-4.71228e-08
1.22624e-05
-2.88926e-08
1.22693e-05
5.21507e-08
1.22694e-05
3.53505e-09
1.22643e-05
-2.22707e-08
1.22617e-05
4.67302e-09
1.22637e-05
1.50268e-08
1.22658e-05
9.40719e-09
1.22643e-05
6.80817e-09
1.22607e-05
4.10872e-09
1.22585e-05
3.40749e-09
1.2258e-05
8.79592e-09
1.22581e-05
1.44132e-08
1.22579e-05
1.49679e-08
1.22572e-05
1.28287e-08
1.22562e-05
1.2116e-08
1.22545e-05
1.28905e-08
1.22527e-05
1.34445e-08
1.22511e-05
1.36439e-08
1.22499e-05
1.42165e-08
1.22491e-05
1.54797e-08
1.22484e-05
1.66639e-08
1.22479e-05
1.71493e-08
1.22476e-05
1.7112e-08
1.22475e-05
1.68493e-08
1.22474e-05
1.66726e-08
1.22474e-05
1.65017e-08
1.22473e-05
1.60814e-08
1.22473e-05
1.55607e-08
1.22472e-05
1.49107e-08
1.22472e-05
1.41683e-08
1.22472e-05
1.35546e-08
1.22473e-05
1.29708e-08
1.22473e-05
1.24024e-08
1.22474e-05
1.18059e-08
1.22475e-05
1.11962e-08
1.22475e-05
1.0594e-08
1.00285e-08
1.22476e-05
1.3228e-05
-1.31343e-07
1.32565e-05
1.40632e-07
1.32434e-05
-3.39505e-08
1.32422e-05
-2.77753e-08
1.32488e-05
4.5567e-08
1.3248e-05
4.34729e-09
1.32439e-05
-1.81632e-08
1.32419e-05
6.72904e-09
1.32429e-05
1.40095e-08
1.32444e-05
7.88121e-09
1.32434e-05
7.81421e-09
1.32401e-05
7.36156e-09
1.32379e-05
5.69333e-09
1.32374e-05
9.2515e-09
1.32373e-05
1.45106e-08
1.32368e-05
1.55004e-08
1.3236e-05
1.36293e-08
1.3235e-05
1.30772e-08
1.32336e-05
1.42496e-08
1.3232e-05
1.51119e-08
1.32304e-05
1.51888e-08
1.32293e-05
1.53559e-08
1.32286e-05
1.61634e-08
1.32281e-05
1.71927e-08
1.32276e-05
1.76275e-08
1.32273e-05
1.74358e-08
1.32271e-05
1.70256e-08
1.32271e-05
1.67033e-08
1.32271e-05
1.64867e-08
1.32271e-05
1.60984e-08
1.32271e-05
1.55598e-08
1.32271e-05
1.49227e-08
1.32271e-05
1.417e-08
1.32271e-05
1.34889e-08
1.32272e-05
1.28872e-08
1.32273e-05
1.23062e-08
1.32274e-05
1.17126e-08
1.32275e-05
1.10965e-08
1.32276e-05
1.04949e-08
9.87769e-09
1.32277e-05
1.42864e-05
-1.11041e-07
1.43134e-05
1.1362e-07
1.43013e-05
-2.1841e-08
1.43002e-05
-2.66602e-08
1.43067e-05
3.91352e-08
1.4305e-05
6.04507e-09
1.43016e-05
-1.47997e-08
1.43003e-05
8.01907e-09
1.43004e-05
1.39277e-08
1.43012e-05
7.11494e-09
1.43005e-05
8.4334e-09
1.42978e-05
1.00789e-08
1.42955e-05
7.98268e-09
1.4295e-05
9.78376e-09
1.42948e-05
1.46596e-08
1.4294e-05
1.63048e-08
1.42929e-05
1.47332e-08
1.4292e-05
1.40291e-08
1.42909e-05
1.52914e-08
1.42896e-05
1.64616e-08
1.42882e-05
1.65775e-08
1.42871e-05
1.64263e-08
1.42865e-05
1.67786e-08
1.42861e-05
1.75783e-08
1.42857e-05
1.80175e-08
1.42854e-05
1.7811e-08
1.42851e-05
1.72496e-08
1.42851e-05
1.67658e-08
1.42851e-05
1.64214e-08
1.42852e-05
1.60592e-08
1.42852e-05
1.55189e-08
1.42853e-05
1.48825e-08
1.42853e-05
1.41485e-08
1.42854e-05
1.34077e-08
1.42855e-05
1.27648e-08
1.42856e-05
1.21571e-08
1.42858e-05
1.15693e-08
1.42859e-05
1.09487e-08
1.42861e-05
1.03387e-08
9.72522e-09
1.42862e-05
1.54296e-05
-9.16624e-08
1.54547e-05
8.85285e-08
1.5444e-05
-1.11e-08
1.54424e-05
-2.51404e-08
1.54489e-05
3.26852e-08
1.54466e-05
8.3097e-09
1.54436e-05
-1.17299e-08
1.5443e-05
8.57238e-09
1.54425e-05
1.44724e-08
1.54424e-05
7.15334e-09
1.54422e-05
8.66758e-09
1.54401e-05
1.21953e-08
1.54376e-05
1.04138e-08
1.54368e-05
1.06049e-08
1.54367e-05
1.47395e-08
1.5436e-05
1.70582e-08
1.54347e-05
1.6024e-08
1.54336e-05
1.5097e-08
1.54328e-05
1.60882e-08
1.54318e-05
1.75055e-08
1.54306e-05
1.78137e-08
1.54295e-05
1.74681e-08
1.54289e-05
1.74127e-08
1.54286e-05
1.78369e-08
1.54284e-05
1.82482e-08
1.54281e-05
1.80934e-08
1.54279e-05
1.7487e-08
1.54278e-05
1.68269e-08
1.54279e-05
1.63366e-08
1.5428e-05
1.59163e-08
1.54281e-05
1.5413e-08
1.54283e-05
1.47759e-08
1.54283e-05
1.40704e-08
1.54284e-05
1.33217e-08
1.54286e-05
1.26253e-08
1.54287e-05
1.1989e-08
1.54289e-05
1.13836e-08
1.54291e-05
1.07727e-08
1.54293e-05
1.01599e-08
9.55108e-09
1.54294e-05
1.66644e-05
-7.35898e-08
1.6687e-05
6.58793e-08
1.6678e-05
-2.06795e-09
1.66757e-05
-2.28347e-08
1.66822e-05
2.61719e-08
1.66797e-05
1.07946e-08
1.66765e-05
-8.54136e-09
1.66767e-05
8.36967e-09
1.6676e-05
1.52409e-08
1.6675e-05
8.10027e-09
1.66749e-05
8.79434e-09
1.66735e-05
1.35635e-08
1.66712e-05
1.27807e-08
1.66699e-05
1.18245e-08
1.66698e-05
1.48431e-08
1.66692e-05
1.76495e-08
1.66679e-05
1.73842e-08
1.66667e-05
1.63318e-08
1.66659e-05
1.68035e-08
1.66653e-05
1.81867e-08
1.66643e-05
1.87573e-08
1.66634e-05
1.84165e-08
1.66627e-05
1.8038e-08
1.66625e-05
1.80889e-08
1.66624e-05
1.83156e-08
1.66623e-05
1.82317e-08
1.66621e-05
1.76701e-08
1.6662e-05
1.69262e-08
1.66621e-05
1.62648e-08
1.66622e-05
1.57423e-08
1.66624e-05
1.52235e-08
1.66626e-05
1.46164e-08
1.66627e-05
1.39218e-08
1.66629e-05
1.31886e-08
1.6663e-05
1.24715e-08
1.66632e-05
1.17978e-08
1.66634e-05
1.11704e-08
1.66636e-05
1.05602e-08
1.66639e-05
9.95186e-09
9.34747e-09
1.66641e-05
1.7998e-05
-5.71965e-08
1.80177e-05
4.61876e-08
1.80108e-05
4.86267e-09
1.80073e-05
-1.93477e-08
1.80137e-05
1.97685e-08
1.80116e-05
1.28875e-08
1.8008e-05
-4.93066e-09
1.80086e-05
7.76829e-09
1.80081e-05
1.57498e-08
1.80064e-05
9.72818e-09
1.80061e-05
9.1465e-09
1.80054e-05
1.42861e-08
1.80033e-05
1.48736e-08
1.80017e-05
1.34434e-08
1.80013e-05
1.51532e-08
1.8001e-05
1.79861e-08
1.79999e-05
1.85326e-08
1.79985e-05
1.76532e-08
1.79977e-05
1.76049e-08
1.79973e-05
1.86283e-08
1.79967e-05
1.93814e-08
1.79959e-05
1.91782e-08
1.79953e-05
1.86491e-08
1.7995e-05
1.83519e-08
1.7995e-05
1.83141e-08
1.79951e-05
1.8194e-08
1.7995e-05
1.77127e-08
1.7995e-05
1.6976e-08
1.7995e-05
1.62146e-08
1.79952e-05
1.55582e-08
1.79955e-05
1.49856e-08
1.79957e-05
1.43807e-08
1.79959e-05
1.37132e-08
1.79961e-05
1.29941e-08
1.79963e-05
1.22793e-08
1.79965e-05
1.15915e-08
1.79967e-05
1.09401e-08
1.7997e-05
1.03216e-08
1.79972e-05
9.71994e-09
9.12159e-09
1.79974e-05
1.94383e-05
-4.2852e-08
1.94546e-05
2.99575e-08
1.94501e-05
9.37197e-09
1.94455e-05
-1.47385e-08
1.94512e-05
1.40224e-08
1.945e-05
1.41191e-08
1.9446e-05
-9.59611e-10
1.94465e-05
7.22774e-09
1.94466e-05
1.57292e-08
1.94446e-05
1.17258e-08
1.94437e-05
1.00413e-08
1.94434e-05
1.45914e-08
1.94418e-05
1.64029e-08
1.944e-05
1.52411e-08
1.94394e-05
1.58319e-08
1.94391e-05
1.82044e-08
1.94383e-05
1.93623e-08
1.94371e-05
1.88688e-08
1.94362e-05
1.84909e-08
1.94358e-05
1.90149e-08
1.94355e-05
1.9681e-08
1.9435e-05
1.96692e-08
1.94345e-05
1.91335e-08
1.94343e-05
1.86132e-08
1.94343e-05
1.83069e-08
1.94344e-05
1.80481e-08
1.94345e-05
1.76088e-08
1.94346e-05
1.69166e-08
1.94347e-05
1.6139e-08
1.94348e-05
1.53921e-08
1.94351e-05
1.47348e-08
1.94354e-05
1.4102e-08
1.94356e-05
1.34425e-08
1.94359e-05
1.27413e-08
1.94361e-05
1.20358e-08
1.94364e-05
1.13486e-08
1.94366e-05
1.06898e-08
1.94369e-05
1.00639e-08
1.94371e-05
9.46468e-09
8.87314e-09
1.94374e-05
2.09938e-05
-3.0825e-08
2.10062e-05
1.75158e-08
2.10042e-05
1.13747e-08
2.0999e-05
-9.4916e-09
2.10034e-05
9.61299e-09
2.10032e-05
1.42861e-08
2.09992e-05
3.00345e-09
2.09992e-05
7.27263e-09
2.09997e-05
1.52602e-08
2.09978e-05
1.35999e-08
2.09964e-05
1.14796e-08
2.09961e-05
1.48543e-08
2.09952e-05
1.73451e-08
2.09935e-05
1.69144e-08
2.09925e-05
1.68553e-08
2.09922e-05
1.84804e-08
2.09917e-05
1.98335e-08
2.09908e-05
1.97959e-08
2.09899e-05
1.93639e-08
2.09895e-05
1.94312e-08
2.09894e-05
1.98235e-08
2.09891e-05
1.98786e-08
2.09889e-05
1.94195e-08
2.09887e-05
1.88124e-08
2.09887e-05
1.82885e-08
2.09889e-05
1.78671e-08
2.09891e-05
1.73799e-08
2.09893e-05
1.67323e-08
2.09894e-05
1.5973e-08
2.09896e-05
1.52016e-08
2.09899e-05
1.44744e-08
2.09902e-05
1.37973e-08
2.09905e-05
1.31265e-08
2.09908e-05
1.24375e-08
2.09911e-05
1.17453e-08
2.09914e-05
1.10667e-08
2.09917e-05
1.04116e-08
2.09919e-05
9.78606e-09
2.09922e-05
9.18966e-09
8.60596e-09
2.09925e-05
2.26733e-05
-2.12298e-08
2.2682e-05
8.88548e-09
2.26821e-05
1.12718e-08
2.26769e-05
-4.36727e-09
2.26796e-05
6.93352e-09
2.26803e-05
1.36235e-08
2.26768e-05
6.50175e-09
2.2676e-05
8.06273e-09
2.26766e-05
1.46853e-08
2.26751e-05
1.50238e-08
2.26734e-05
1.32198e-08
2.26729e-05
1.53411e-08
2.26724e-05
1.78532e-08
2.26711e-05
1.82154e-08
2.26699e-05
1.80127e-08
2.26695e-05
1.89209e-08
2.26692e-05
2.01022e-08
2.26686e-05
2.03899e-08
2.2668e-05
2.00486e-08
2.26675e-05
1.9844e-08
2.26675e-05
1.99129e-08
2.26675e-05
1.98729e-08
2.26674e-05
1.94854e-08
2.26673e-05
1.88661e-08
2.26674e-05
1.82332e-08
2.26676e-05
1.76568e-08
2.26679e-05
1.70923e-08
2.26682e-05
1.64443e-08
2.26685e-05
1.57072e-08
2.26687e-05
1.49407e-08
2.2669e-05
1.41888e-08
2.26693e-05
1.34704e-08
2.26697e-05
1.27781e-08
2.267e-05
1.2094e-08
2.26703e-05
1.14138e-08
2.26707e-05
1.07467e-08
2.2671e-05
1.01011e-08
2.26713e-05
9.48295e-09
2.26716e-05
8.89384e-09
8.3197e-09
2.26719e-05
2.44867e-05
-1.39554e-08
2.44919e-05
3.65858e-09
2.44933e-05
9.91033e-09
2.4489e-05
-7.38809e-11
2.449e-05
5.89515e-09
2.4491e-05
1.26285e-08
2.44883e-05
9.2007e-09
2.44869e-05
9.44238e-09
2.44873e-05
1.43432e-08
2.44864e-05
1.59243e-08
2.44847e-05
1.48914e-08
2.44839e-05
1.61068e-08
2.44836e-05
1.82085e-08
2.44827e-05
1.90997e-08
2.44817e-05
1.90424e-08
2.44811e-05
1.94765e-08
2.44809e-05
2.0307e-08
2.44806e-05
2.0675e-08
2.44802e-05
2.04699e-08
2.44799e-05
2.01558e-08
2.44798e-05
1.9958e-08
2.44799e-05
1.97598e-08
2.44801e-05
1.93631e-08
2.44802e-05
1.87563e-08
2.44803e-05
1.80793e-08
2.44806e-05
1.74073e-08
2.44809e-05
1.67551e-08
2.44813e-05
1.6079e-08
2.44816e-05
1.53509e-08
2.4482e-05
1.45959e-08
2.44823e-05
1.38431e-08
2.44827e-05
1.3111e-08
2.44831e-05
1.24039e-08
2.44834e-05
1.17174e-08
2.44838e-05
1.10464e-08
2.44842e-05
1.03924e-08
2.44845e-05
9.76008e-09
2.44848e-05
9.15407e-09
2.44852e-05
8.57661e-09
8.01516e-09
2.44855e-05
2.64443e-05
-8.70387e-09
2.64469e-05
1.07785e-09
2.64486e-05
8.18113e-09
2.64455e-05
3.05172e-09
2.64453e-05
6.05103e-09
2.64462e-05
1.17852e-08
2.64443e-05
1.10535e-08
2.64427e-05
1.10393e-08
2.64427e-05
1.43978e-08
2.64421e-05
1.64568e-08
2.64408e-05
1.62619e-08
2.64399e-05
1.70299e-08
2.64395e-05
1.85676e-08
2.6439e-05
1.96367e-08
2.64382e-05
1.9797e-08
2.64377e-05
2.00153e-08
2.64375e-05
2.04903e-08
2.64374e-05
2.07618e-08
2.64372e-05
2.06311e-08
2.64371e-05
2.02811e-08
2.64371e-05
1.9919e-08
2.64373e-05
1.95615e-08
2.64376e-05
1.90999e-08
2.64379e-05
1.84906e-08
2.64382e-05
1.77965e-08
2.64385e-05
1.7079e-08
2.64389e-05
1.63662e-08
2.64393e-05
1.56534e-08
2.64397e-05
1.49237e-08
2.64401e-05
1.41778e-08
2.64406e-05
1.34329e-08
2.6441e-05
1.27031e-08
2.64414e-05
1.19956e-08
2.64418e-05
1.13113e-08
2.64422e-05
1.06488e-08
2.64426e-05
1.00079e-08
2.64429e-05
9.39076e-09
2.64433e-05
8.79995e-09
2.64436e-05
8.23735e-09
7.69221e-09
2.64439e-05
2.85577e-05
-5.06725e-09
2.85585e-05
2.63958e-10
2.856e-05
6.69219e-09
2.85579e-05
5.09563e-09
2.85571e-05
6.85784e-09
2.85576e-05
1.13463e-08
2.85564e-05
1.22359e-08
2.85549e-05
1.25419e-08
2.85545e-05
1.48035e-08
2.85541e-05
1.68298e-08
2.85531e-05
1.7261e-08
2.85522e-05
1.79057e-08
2.85518e-05
1.89575e-08
2.85515e-05
1.99605e-08
2.85511e-05
2.02561e-08
2.85507e-05
2.0402e-08
2.85506e-05
2.06101e-08
2.85506e-05
2.0717e-08
2.85507e-05
2.05696e-08
2.85507e-05
2.02008e-08
2.85509e-05
1.97473e-08
2.85512e-05
1.92627e-08
2.85516e-05
1.8723e-08
2.8552e-05
1.80902e-08
2.85524e-05
1.73839e-08
2.85528e-05
1.66454e-08
2.85533e-05
1.59029e-08
2.85538e-05
1.51672e-08
2.85543e-05
1.44305e-08
2.85548e-05
1.36919e-08
2.85552e-05
1.29585e-08
2.85557e-05
1.22398e-08
2.85562e-05
1.15437e-08
2.85566e-05
1.08717e-08
2.8557e-05
1.02234e-08
2.85574e-05
9.5995e-09
2.85578e-05
9.00128e-09
2.85582e-05
8.43005e-09
2.85585e-05
7.88678e-09
7.35006e-09
2.85589e-05
3.08392e-05
-2.62761e-09
3.08391e-05
4.49468e-10
3.084e-05
5.72571e-09
3.08388e-05
6.34995e-09
3.08377e-05
7.87553e-09
3.08378e-05
1.13305e-08
3.0837e-05
1.30067e-08
3.08358e-05
1.37733e-08
3.08352e-05
1.54002e-08
3.08348e-05
1.71649e-08
3.08342e-05
1.79312e-08
3.08335e-05
1.85969e-08
3.08331e-05
1.9316e-08
3.08329e-05
2.0148e-08
3.08327e-05
2.04487e-08
3.08326e-05
2.05781e-08
3.08326e-05
2.06055e-08
3.08327e-05
2.05504e-08
3.0833e-05
2.0333e-08
3.08332e-05
1.99251e-08
3.08336e-05
1.94139e-08
3.0834e-05
1.8848e-08
3.08345e-05
1.82329e-08
3.0835e-05
1.7562e-08
3.08355e-05
1.68452e-08
3.08361e-05
1.61015e-08
3.08366e-05
1.53498e-08
3.08372e-05
1.46015e-08
3.08378e-05
1.38619e-08
3.08383e-05
1.31328e-08
3.08389e-05
1.24172e-08
3.08394e-05
1.17187e-08
3.08399e-05
1.10411e-08
3.08404e-05
1.03869e-08
3.08408e-05
9.75775e-09
3.08413e-05
9.15422e-09
3.08417e-05
8.57724e-09
3.08421e-05
8.02746e-09
3.08425e-05
7.50561e-09
6.99993e-09
3.08429e-05
3.33025e-05
-1.02194e-09
3.33019e-05
1.09071e-09
3.33023e-05
5.29941e-09
3.33015e-05
7.13062e-09
3.33005e-05
8.8438e-09
3.33002e-05
1.16146e-08
3.32997e-05
1.35601e-08
3.32988e-05
1.46969e-08
3.32982e-05
1.60152e-08
3.32978e-05
1.74831e-08
3.32974e-05
1.83466e-08
3.3297e-05
1.9051e-08
3.32967e-05
1.9559e-08
3.32967e-05
2.02131e-08
3.32967e-05
2.04192e-08
3.32967e-05
2.05343e-08
3.32969e-05
2.0429e-08
3.32972e-05
2.0251e-08
3.32976e-05
1.99373e-08
3.3298e-05
1.94828e-08
3.32985e-05
1.89251e-08
3.32991e-05
1.83046e-08
3.32997e-05
1.7634e-08
3.33003e-05
1.69272e-08
3.3301e-05
1.61926e-08
3.33016e-05
1.54432e-08
3.33023e-05
1.46905e-08
3.33029e-05
1.39469e-08
3.33036e-05
1.32175e-08
3.33042e-05
1.25057e-08
3.33048e-05
1.18125e-08
3.33054e-05
1.11396e-08
3.3306e-05
1.04861e-08
3.33065e-05
9.84198e-09
3.3307e-05
9.23613e-09
3.33075e-05
8.66123e-09
3.3308e-05
8.11327e-09
3.33084e-05
7.59239e-09
3.33088e-05
7.09841e-09
6.62346e-09
3.33092e-05
3.59621e-05
2.67316e-11
3.59613e-05
1.85998e-09
3.59613e-05
5.29118e-09
3.59608e-05
7.66969e-09
3.596e-05
9.65081e-09
3.59596e-05
1.2038e-08
3.59591e-05
1.4e-08
3.59585e-05
1.53364e-08
3.5958e-05
1.65201e-08
3.59577e-05
1.77404e-08
3.59575e-05
1.8571e-08
3.59573e-05
1.92591e-08
3.59572e-05
1.96408e-08
3.59573e-05
2.01334e-08
3.59575e-05
2.02062e-08
3.59577e-05
2.0291e-08
3.59581e-05
2.00505e-08
3.59586e-05
1.97929e-08
3.59591e-05
1.93684e-08
3.59598e-05
1.88525e-08
3.59604e-05
1.82437e-08
3.59612e-05
1.75779e-08
3.59619e-05
1.6866e-08
3.59627e-05
1.61332e-08
3.59635e-05
1.53849e-08
3.59644e-05
1.46345e-08
3.59652e-05
1.38904e-08
3.59659e-05
1.31633e-08
3.59667e-05
1.24569e-08
3.59674e-05
1.17759e-08
3.59681e-05
1.11222e-08
3.59687e-05
1.05108e-08
3.59693e-05
9.91904e-09
3.59698e-05
9.33592e-09
3.59703e-05
8.77407e-09
3.59707e-05
8.23491e-09
3.59711e-05
7.71848e-09
3.59715e-05
7.22572e-09
3.59718e-05
6.75663e-09
6.31863e-09
3.59721e-05
3.88338e-05
7.15026e-10
3.8833e-05
2.58688e-09
3.88328e-05
5.53318e-09
3.88324e-05
8.09377e-09
3.88318e-05
1.02701e-08
3.88313e-05
1.24674e-08
3.8831e-05
1.43406e-08
3.88306e-05
1.57382e-08
3.88303e-05
1.68494e-08
3.88301e-05
1.78805e-08
3.88301e-05
1.86066e-08
3.88301e-05
1.9241e-08
3.88302e-05
1.95196e-08
3.88304e-05