/*--------------------------------*- C++ -*----------------------------------*\
| =========                 |                                                 |
| \\      /  F ield         | OpenFOAM: The Open Source CFD Toolbox           |
|  \\    /   O peration     | Version:  2312                                  |
|   \\  /    A nd           | Website:  www.openfoam.com                      |
|    \\/     M anipulation  |                                                 |
\*---------------------------------------------------------------------------*/
FoamFile
{
    version     2.0;
    format      ascii;
    arch        "LSB;label=32;scalar=64";
    class       volVectorField;
    location    "0.1";
    object      U;
}
// * * * * * * * * * * * * * * * * * * * * * * * * * * * * * * * * * * * * * //

dimensions      [0 1 -1 0 0 0 0];

internalField   nonuniform List<vector> 
5600
(
(0.987098 -0.00496213 0)
(1.02329 0.00780418 0)
(0.974377 -0.00381752 0)
(1.02814 -0.00154944 0)
(0.97674 0.00356854 0)
(1.02143 0.00115379 0)
(0.979643 -0.00433841 0)
(1.02067 -0.00081651 0)
(0.981808 0.00253516 0)
(1.01748 0.00274193 0)
(0.982807 -0.00128281 0)
(1.01566 -0.00291053 0)
(0.985285 -0.00231121 0)
(1.0139 0.000679961 0)
(0.98612 0.00230063 0)
(1.01168 0.002719 0)
(0.987706 0.00107849 0)
(1.01003 -0.000578875 0)
(0.988596 -0.00223659 0)
(1.00835 -0.00252968 0)
(0.989723 -0.00221488 0)
(1.00707 -0.000983852 0)
(0.990108 3.33041e-05 0)
(1.00531 0.00123063 0)
(0.990861 0.00195991 0)
(1.00421 0.00264359 0)
(0.991281 0.00245334 0)
(1.00276 0.0020035 0)
(0.991439 0.00142549 0)
(1.0014 0.00108339 0)
(0.991671 0.000449479 0)
(1.00039 7.58815e-05 0)
(0.991703 -0.000353141 0)
(0.999145 -0.000657187 0)
(0.991296 -0.000821406 0)
(0.997788 -0.000647059 0)
(0.991011 -0.000437636 0)
(0.996715 5.1427e-05 0)
(0.990861 0.000619996 0)
(0.996286 0.00141401 0)
(0.993336 -0.00539838 0)
(1.00907 0.00836387 0)
(0.993725 -0.00406216 0)
(1.00925 -0.00162414 0)
(0.991854 0.00385363 0)
(1.00962 0.00113805 0)
(0.994783 -0.00446816 0)
(1.00443 -0.000821569 0)
(0.994853 0.00268686 0)
(1.0057 0.00276754 0)
(0.99769 -0.00127854 0)
(1.0036 -0.00297226 0)
(0.996051 -0.00226256 0)
(1.00105 0.000704222 0)
(0.99653 0.00240014 0)
(1.00187 0.002724 0)
(0.999068 0.00113201 0)
(1.00194 -0.000576634 0)
(0.998433 -0.0021532 0)
(0.999836 -0.00250653 0)
(0.997175 -0.00214631 0)
(0.998354 -0.000874709 0)
(0.996167 0.000167104 0)
(0.997566 0.00125566 0)
(0.996752 0.00206629 0)
(0.997924 0.00273832 0)
(0.997342 0.00261135 0)
(0.998066 0.00216305 0)
(0.997415 0.00154804 0)
(0.997735 0.00125203 0)
(0.997364 0.000705497 0)
(0.997402 0.000370548 0)
(0.996822 8.62536e-05 0)
(0.996499 -0.000183067 0)
(0.995804 -0.00018873 0)
(0.995486 3.20899e-05 0)
(0.995027 0.000364771 0)
(0.99487 0.000952224 0)
(0.994806 0.00161927 0)
(0.995132 0.0025537 0)
(0.996851 -0.00505827 0)
(1.00054 0.00769548 0)
(1.00274 -0.00369528 0)
(0.998822 -0.00152707 0)
(0.997554 0.00355847 0)
(1.00496 0.000994868 0)
(0.999716 -0.003958 0)
(0.997587 -0.000816493 0)
(0.998148 0.00244884 0)
(1.00225 0.00240803 0)
(1.00152 -0.00104511 0)
(1.00028 -0.00266564 0)
(0.997619 -0.00194262 0)
(0.997336 0.000549185 0)
(0.997884 0.00215918 0)
(1.00004 0.00234429 0)
(1.00096 0.00106907 0)
(1.00096 -0.000498608 0)
(0.999698 -0.00177299 0)
(0.99853 -0.00217406 0)
(0.997324 -0.00179233 0)
(0.9966 -0.000740025 0)
(0.996076 0.000195674 0)
(0.996132 0.00105433 0)
(0.996541 0.00192212 0)
(0.997146 0.00244025 0)
(0.997618 0.0023643 0)
(0.998041 0.0019784 0)
(0.997969 0.00149935 0)
(0.997852 0.00124951 0)
(0.997898 0.00084377 0)
(0.997576 0.000565301 0)
(0.99724 0.000362483 0)
(0.996699 0.000119061 0)
(0.9961 0.000178243 0)
(0.995663 0.000246134 0)
(0.995217 0.000525406 0)
(0.994989 0.000860215 0)
(0.99487 0.00125885 0)
(0.995147 0.00174823 0)
(0.997861 -0.00511271 0)
(0.998215 0.00768836 0)
(1.00438 -0.00365401 0)
(0.996523 -0.00144721 0)
(0.998347 0.00344071 0)
(1.00381 0.000947705 0)
(1.00033 -0.00376549 0)
(0.996502 -0.000751307 0)
(0.998409 0.00230636 0)
(1.00149 0.00225169 0)
(1.00164 -0.000957438 0)
(0.99979 -0.00246372 0)
(0.997745 -0.00176444 0)
(0.996954 0.000518292 0)
(0.997856 0.00200165 0)
(0.999661 0.00216013 0)
(1.00079 0.0010093 0)
(1.00062 -0.000420428 0)
(0.999589 -0.00155343 0)
(0.998396 -0.00191047 0)
(0.997303 -0.00155348 0)
(0.996527 -0.000610448 0)
(0.996156 0.000273516 0)
(0.996033 0.00105428 0)
(0.996376 0.00180988 0)
(0.997081 0.00225826 0)
(0.997501 0.00222738 0)
(0.997867 0.00197136 0)
(0.997843 0.00157863 0)
(0.997648 0.00136432 0)
(0.997774 0.00105571 0)
(0.99746 0.00083184 0)
(0.99724 0.000745713 0)
(0.996762 0.000599412 0)
(0.996265 0.000720403 0)
(0.996015 0.000864849 0)
(0.995636 0.00114842 0)
(0.99557 0.00151403 0)
(0.995513 0.00191099 0)
(0.995858 0.00238813 0)
(0.998093 -0.004732 0)
(0.997849 0.00702288 0)
(1.00438 -0.00327993 0)
(0.996388 -0.00128957 0)
(0.998408 0.00305628 0)
(1.00344 0.0008053 0)
(1.00033 -0.00322747 0)
(0.996572 -0.000688624 0)
(0.99847 0.00199852 0)
(1.00125 0.00189082 0)
(1.00141 -0.00075131 0)
(0.999709 -0.00209656 0)
(0.997877 -0.00144616 0)
(0.997093 0.000409575 0)
(0.9979 0.00169795 0)
(0.999536 0.00180066 0)
(1.00058 0.000888209 0)
(1.0004 -0.000299128 0)
(0.99945 -0.00120213 0)
(0.998379 -0.00150417 0)
(0.997406 -0.00119973 0)
(0.99668 -0.000435558 0)
(0.996317 0.000297954 0)
(0.996196 0.000947515 0)
(0.996496 0.00161117 0)
(0.997119 0.00196355 0)
(0.997429 0.00197297 0)
(0.997732 0.00181863 0)
(0.997767 0.00153798 0)
(0.997554 0.00142994 0)
(0.997675 0.00120361 0)
(0.997433 0.00107015 0)
(0.997202 0.0010277 0)
(0.996797 0.00091909 0)
(0.996369 0.0010594 0)
(0.996151 0.00113561 0)
(0.995852 0.00135148 0)
(0.995814 0.00159439 0)
(0.995789 0.00184522 0)
(0.99614 0.00214822 0)
(0.99824 -0.00468901 0)
(0.997841 0.00688999 0)
(1.00404 -0.00318424 0)
(0.996675 -0.00120201 0)
(0.998497 0.00290104 0)
(1.00307 0.000741102 0)
(1.00026 -0.00299919 0)
(0.996911 -0.000628946 0)
(0.998634 0.00185546 0)
(1.00102 0.00171976 0)
(1.00108 -0.000660005 0)
(0.999652 -0.00190221 0)
(0.998127 -0.00127459 0)
(0.997416 0.000380896 0)
(0.998043 0.00155766 0)
(0.999418 0.00163261 0)
(1.00028 0.000833269 0)
(1.00009 -0.000224738 0)
(0.999268 -0.00100403 0)
(0.998388 -0.00126271 0)
(0.997598 -0.000978889 0)
(0.996974 -0.000312463 0)
(0.996632 0.000374035 0)
(0.996474 0.000973291 0)
(0.996686 0.00153164 0)
(0.997222 0.00183091 0)
(0.997417 0.0019023 0)
(0.997602 0.00182437 0)
(0.997618 0.00161577 0)
(0.997391 0.0015367 0)
(0.99752 0.00137822 0)
(0.99732 0.00126744 0)
(0.99713 0.00126853 0)
(0.996818 0.00123793 0)
(0.996455 0.00136757 0)
(0.99634 0.00146839 0)
(0.99613 0.00167136 0)
(0.99616 0.00188014 0)
(0.996203 0.00211317 0)
(0.996586 0.00236024 0)
(0.998345 -0.00433608 0)
(0.997872 0.00627595 0)
(1.00377 -0.00284193 0)
(0.996923 -0.00105511 0)
(0.998563 0.0025596 0)
(1.0028 0.000608459 0)
(1.00021 -0.00252469 0)
(0.997158 -0.000552891 0)
(0.998752 0.00157961 0)
(1.00087 0.00141257 0)
(1.00086 -0.000492645 0)
(0.999617 -0.00155923 0)
(0.998293 -0.00101406 0)
(0.997631 0.000316355 0)
(0.998141 0.00129582 0)
(0.999353 0.00135026 0)
(1.00011 0.000727423 0)
(0.99991 -0.000109072 0)
(0.99916 -0.000705733 0)
(0.998394 -0.000907141 0)
(0.997725 -0.000675105 0)
(0.997165 -0.000138666 0)
(0.996814 0.000419729 0)
(0.996671 0.000904155 0)
(0.996868 0.00138968 0)
(0.997299 0.00163771 0)
(0.997422 0.00172704 0)
(0.997559 0.00173446 0)
(0.997595 0.00159752 0)
(0.997393 0.00160921 0)
(0.997487 0.00152644 0)
(0.997362 0.00147882 0)
(0.997191 0.00154827 0)
(0.996908 0.00154012 0)
(0.996604 0.00169976 0)
(0.996491 0.00178468 0)
(0.996331 0.00194781 0)
(0.996371 0.00209869 0)
(0.996434 0.00225575 0)
(0.996829 0.00241263 0)
(0.998477 -0.00422822 0)
(0.997921 0.00605312 0)
(1.00342 -0.0027012 0)
(0.997235 -0.000978229 0)
(0.998656 0.00239913 0)
(1.00246 0.000538915 0)
(1.00014 -0.00228966 0)
(0.997476 -0.00050048 0)
(0.998912 0.00144512 0)
(1.00067 0.0012564 0)
(1.00057 -0.000405151 0)
(0.999565 -0.0013735 0)
(0.998511 -0.00087363 0)
(0.997917 0.000300303 0)
(0.998277 0.00117979 0)
(0.999266 0.00121793 0)
(0.999878 0.000690841 0)
(0.999667 -3.67082e-05 0)
(0.999015 -0.000529312 0)
(0.998404 -0.000702487 0)
(0.997888 -0.000481403 0)
(0.997416 -2.22977e-05 0)
(0.99709 0.000495639 0)
(0.996932 0.000939582 0)
(0.997048 0.00135896 0)
(0.997402 0.00157263 0)
(0.997473 0.00170361 0)
(0.997514 0.00175417 0)
(0.997533 0.00168003 0)
(0.997327 0.00171204 0)
(0.99741 0.00168314 0)
(0.997336 0.00166648 0)
(0.997178 0.0017395 0)
(0.996972 0.00175684 0)
(0.996711 0.00189442 0)
(0.996631 0.00195652 0)
(0.996523 0.0020871 0)
(0.996579 0.00217505 0)
(0.996664 0.00228862 0)
(0.997035 0.00238039 0)
(0.998586 -0.0038951 0)
(0.997971 0.0054816 0)
(1.00313 -0.00238885 0)
(0.997488 -0.000852115 0)
(0.998718 0.0021056 0)
(1.00221 0.000421923 0)
(1.00009 -0.00188954 0)
(0.997702 -0.000414908 0)
(0.999012 0.00120692 0)
(1.00054 0.00101104 0)
(1.00038 -0.000277638 0)
(0.999537 -0.00107404 0)
(0.998654 -0.000663303 0)
(0.998099 0.00026108 0)
(0.998358 0.000985527 0)
(0.999215 0.000998169 0)
(0.999746 0.000622887 0)
(0.999534 5.46761e-05 0)
(0.998941 -0.000274263 0)
(0.998418 -0.000422441 0)
(0.997996 -0.00021617 0)
(0.997581 0.000123975 0)
(0.997253 0.000574009 0)
(0.997097 0.000900152 0)
(0.997203 0.00128412 0)
(0.997497 0.00146173 0)
(0.997534 0.00160036 0)
(0.997543 0.00169158 0)
(0.997572 0.00168824 0)
(0.997402 0.00175096 0)
(0.997457 0.00182815 0)
(0.997425 0.00184349 0)
(0.997289 0.00200907 0)
(0.997085 0.00208461 0)
(0.996837 0.00227558 0)
(0.996738 0.0023733 0)
(0.996625 0.00251846 0)
(0.996665 0.00259224 0)
(0.996755 0.00263571 0)
(0.99717 0.0025242 0)
(0.998715 -0.00373208 0)
(0.998036 0.0051847 0)
(1.00279 -0.00221196 0)
(0.99778 -0.000789102 0)
(0.998802 0.00195018 0)
(1.00191 0.000355629 0)
(1.00004 -0.00166694 0)
(0.997969 -0.000361162 0)
(0.999149 0.00107944 0)
(1.00039 0.000882757 0)
(1.00015 -0.000201601 0)
(0.999487 -0.000899473 0)
(0.998832 -0.000549885 0)
(0.99833 0.000257322 0)
(0.998474 0.000895007 0)
(0.999151 0.000909988 0)
(0.999576 0.000596595 0)
(0.999357 0.000130907 0)
(0.99884 -0.000126985 0)
(0.998429 -0.000243435 0)
(0.998128 -5.42024e-05 0)
(0.997786 0.000235874 0)
(0.997484 0.000646185 0)
(0.997322 0.000950653 0)
(0.997375 0.00129039 0)
(0.9976 0.00144833 0)
(0.99763 0.00160528 0)
(0.997573 0.00172548 0)
(0.99758 0.00175731 0)
(0.997443 0.00182506 0)
(0.997491 0.00192051 0)
(0.997519 0.00194938 0)
(0.997434 0.00209807 0)
(0.99729 0.00217577 0)
(0.997074 0.00235408 0)
(0.996967 0.00243943 0)
(0.996846 0.00257622 0)
(0.996763 0.00263506 0)
(0.996527 0.00266922 0)
(0.996097 0.00254587 0)
(0.998827 -0.00341401 0)
(0.998103 0.00465289 0)
(1.0025 -0.00192776 0)
(0.99803 -0.000688878 0)
(0.998856 0.00170715 0)
(1.00168 0.000259458 0)
(1.00001 -0.0013485 0)
(0.998167 -0.000269658 0)
(0.999229 0.000882477 0)
(1.00028 0.00070103 0)
(1.00001 -0.000109996 0)
(0.999463 -0.000652069 0)
(0.998949 -0.000386725 0)
(0.99848 0.000244598 0)
(0.998541 0.000755505 0)
(0.999113 0.000771852 0)
(0.999484 0.000541226 0)
(0.999273 0.000229405 0)
(0.998799 5.28648e-05 0)
(0.998451 2.8322e-06 0)
(0.998219 0.000137379 0)
(0.997928 0.000388962 0)
(0.997634 0.000710957 0)
(0.997469 0.000975625 0)
(0.997512 0.00124317 0)
(0.997708 0.00142052 0)
(0.997738 0.00154847 0)
(0.997662 0.00170255 0)
(0.997662 0.00177614 0)
(0.997556 0.00186097 0)
(0.997583 0.00196814 0)
(0.997622 0.00200969 0)
(0.997551 0.00211463 0)
(0.99741 0.0021606 0)
(0.997189 0.00225796 0)
(0.997062 0.00231055 0)
(0.996928 0.00238533 0)
(0.996822 0.00243234 0)
(0.996593 0.00248025 0)
(0.996203 0.00252192 0)
(0.99895 -0.00320491 0)
(0.998186 0.00429862 0)
(1.00219 -0.00172534 0)
(0.998298 -0.000643341 0)
(0.998928 0.00156327 0)
(1.00143 0.000205881 0)
(0.999963 -0.00115532 0)
(0.998383 -0.000211055 0)
(0.999335 0.000767813 0)
(1.00016 0.000602879 0)
(0.999838 -4.33956e-05 0)
(0.999422 -0.000501122 0)
(0.999079 -0.00028923 0)
(0.998664 0.000244969 0)
(0.998635 0.000699862 0)
(0.999072 0.000717967 0)
(0.999371 0.000535004 0)
(0.999161 0.000298321 0)
(0.998742 0.000174916 0)
(0.99847 0.00015515 0)
(0.998324 0.000268984 0)
(0.998098 0.00049583 0)
(0.997827 0.000780671 0)
(0.997661 0.00103328 0)
(0.997678 0.00127234 0)
(0.997824 0.00144143 0)
(0.997855 0.00156407 0)
(0.997765 0.00172606 0)
(0.997725 0.00181125 0)
(0.997633 0.00189188 0)
(0.997646 0.00199054 0)
(0.997689 0.00203227 0)
(0.997618 0.00212499 0)
(0.997484 0.00216696 0)
(0.99729 0.00225727 0)
(0.99717 0.00232086 0)
(0.997054 0.00239713 0)
(0.99694 0.00246233 0)
(0.996707 0.0025165 0)
(0.996284 0.00257387 0)
(0.999062 -0.0028994 0)
(0.998271 0.00380514 0)
(1.0019 -0.00146759 0)
(0.998535 -0.00057092 0)
(0.998976 0.00137013 0)
(1.00122 0.000136943 0)
(0.99995 -0.000920257 0)
(0.998548 -0.00012005 0)
(0.999394 0.000617645 0)
(1.00008 0.000476806 0)
(0.999736 2.15392e-05 0)
(0.999403 -0.000306396 0)
(0.999168 -0.000168663 0)
(0.998787 0.000257502 0)
(0.998693 0.000609468 0)
(0.999048 0.000645425 0)
(0.999316 0.000509933 0)
(0.999121 0.00037711 0)
(0.998736 0.000322365 0)
(0.998501 0.000336083 0)
(0.998403 0.000432617 0)
(0.998224 0.000617341 0)
(0.997968 0.000858437 0)
(0.9978 0.00107415 0)
(0.997807 0.00127273 0)
(0.997937 0.00143073 0)
(0.997982 0.0015555 0)
(0.997888 0.00170152 0)
(0.997829 0.00180627 0)
(0.997752 0.00189314 0)
(0.997745 0.00199009 0)
(0.997794 0.00203636 0)
(0.997733 0.00212699 0)
(0.997609 0.00219095 0)
(0.997433 0.00227813 0)
(0.997304 0.002352 0)
(0.997189 0.00241923 0)
(0.99706 0.00248665 0)
(0.996834 0.00253792 0)
(0.99641 0.0026041 0)
(0.999178 -0.00265585 0)
(0.998373 0.00341432 0)
(1.00161 -0.00125261 0)
(0.998773 -0.000542729 0)
(0.999037 0.00124084 0)
(1.00101 0.00010486 0)
(0.999926 -0.000768477 0)
(0.998714 -5.97557e-05 0)
(0.999465 0.000527579 0)
(1.00001 0.000404291 0)
(0.999624 7.86736e-05 0)
(0.999369 -0.000180662 0)
(0.999258 -8.89735e-05 0)
(0.998928 0.000269178 0)
(0.998773 0.00058016 0)
(0.999027 0.00062855 0)
(0.999251 0.00051879 0)
(0.999071 0.000441051 0)
(0.99872 0.000423965 0)
(0.998529 0.000458023 0)
(0.998488 0.00054458 0)
(0.998367 0.000707422 0)
(0.998137 0.000928118 0)
(0.997964 0.00113317 0)
(0.997958 0.00131038 0)
(0.998064 0.00145811 0)
(0.998105 0.00157345 0)
(0.998013 0.00171121 0)
(0.99793 0.00182379 0)
(0.997844 0.00190472 0)
(0.997821 0.00199968 0)
(0.997875 0.00204788 0)
(0.997842 0.00212554 0)
(0.997723 0.00220272 0)
(0.997563 0.00227978 0)
(0.997429 0.00236046 0)
(0.997321 0.00242004 0)
(0.997195 0.00249202 0)
(0.996982 0.00254326 0)
(0.996572 0.00261201 0)
(0.999285 -0.00236218 0)
(0.998478 0.00295878 0)
(1.00135 -0.00102005 0)
(0.99899 -0.000497667 0)
(0.999084 0.00109073 0)
(1.00083 6.93217e-05 0)
(0.999929 -0.00061041 0)
(0.998846 2.19631e-05 0)
(0.9995 0.000430957 0)
(0.999958 0.000318601 0)
(0.999565 0.000129034 0)
(0.999352 -3.53253e-05 0)
(0.99932 5.74864e-06 0)
(0.999027 0.000284951 0)
(0.998827 0.000548004 0)
(0.999015 0.000595508 0)
(0.999227 0.000524816 0)
(0.999072 0.000501055 0)
(0.998744 0.000539263 0)
(0.99857 0.000595259 0)
(0.998559 0.000672732 0)
(0.998482 0.000806473 0)
(0.998276 0.000999168 0)
(0.998098 0.00118489 0)
(0.998081 0.00133643 0)
(0.998176 0.00146314 0)
(0.998234 0.00157261 0)
(0.998156 0.00170298 0)
(0.998052 0.0018218 0)
(0.997974 0.00191 0)
(0.997938 0.00200791 0)
(0.99798 0.00206781 0)
(0.997978 0.00213172 0)
(0.997873 0.00221381 0)
(0.997725 0.00229241 0)
(0.997582 0.00237623 0)
(0.997474 0.00243876 0)
(0.997345 0.00250577 0)
(0.997136 0.00255858 0)
(0.996733 0.00261821 0)
(0.999391 -0.0020994 0)
(0.998596 0.00255659 0)
(1.0011 -0.000807734 0)
(0.999193 -0.000482236 0)
(0.999141 0.000974381 0)
(1.00065 6.61623e-05 0)
(0.999927 -0.000503297 0)
(0.998972 7.46834e-05 0)
(0.999538 0.000378144 0)
(0.999918 0.000267721 0)
(0.99951 0.00017303 0)
(0.999325 6.95887e-05 0)
(0.999376 7.08962e-05 0)
(0.999139 0.000299817 0)
(0.998898 0.000547242 0)
(0.99901 0.000606266 0)
(0.9992 0.000551904 0)
(0.999074 0.000552605 0)
(0.99877 0.000623838 0)
(0.998609 0.000696191 0)
(0.998629 0.000767067 0)
(0.998605 0.000879757 0)
(0.998434 0.00105532 0)
(0.99825 0.00123844 0)
(0.998212 0.00138118 0)
(0.998296 0.00149361 0)
(0.998361 0.00159377 0)
(0.9983 0.0017093 0)
(0.998187 0.00183269 0)
(0.998095 0.00192588 0)
(0.998048 0.00201346 0)
(0.998068 0.00208118 0)
(0.998089 0.00213169 0)
(0.998017 0.00220519 0)
(0.997885 0.00228043 0)
(0.997742 0.0023614 0)
(0.997621 0.00242788 0)
(0.997493 0.00248783 0)
(0.997286 0.00254196 0)
(0.996893 0.00259242 0)
(0.999489 -0.00181948 0)
(0.99872 0.0021411 0)
(1.00086 -0.000601675 0)
(0.999377 -0.0004571 0)
(0.999193 0.000852487 0)
(1.00049 6.8269e-05 0)
(0.999943 -0.000406307 0)
(0.99908 0.000134206 0)
(0.999548 0.000338506 0)
(0.999891 0.000214037 0)
(0.999495 0.000206512 0)
(0.999312 0.000180815 0)
(0.99941 0.000152085 0)
(0.999226 0.000316154 0)
(0.99896 0.000544867 0)
(0.99901 0.000617203 0)
(0.999193 0.000577843 0)
(0.999111 0.000600025 0)
(0.99883 0.000704926 0)
(0.998662 0.000802689 0)
(0.998689 0.000871192 0)
(0.998707 0.000959317 0)
(0.998578 0.00110692 0)
(0.998394 0.00128186 0)
(0.99833 0.00142112 0)
(0.9984 0.00151957 0)
(0.998482 0.00160457 0)
(0.998454 0.00170753 0)
(0.998342 0.0018268 0)
(0.998237 0.00192883 0)
(0.998181 0.00201478 0)
(0.99818 0.00208756 0)
(0.998206 0.00213965 0)
(0.998167 0.00220018 0)
(0.998061 0.00227096 0)
(0.997923 0.00234597 0)
(0.997789 0.00241601 0)
(0.997652 0.00247403 0)
(0.997441 0.00252723 0)
(0.997052 0.00257366 0)
(0.999582 -0.00155661 0)
(0.998852 0.0017576 0)
(1.00065 -0.000410311 0)
(0.99954 -0.000444614 0)
(0.999255 0.000741874 0)
(1.00034 9.75022e-05 0)
(0.999954 -0.000334879 0)
(0.999183 0.000165649 0)
(0.999555 0.000329792 0)
(0.99987 0.000189384 0)
(0.999492 0.000229151 0)
(0.999297 0.000266252 0)
(0.99943 0.000219596 0)
(0.999316 0.000329893 0)
(0.99904 0.000553289 0)
(0.999018 0.00065253 0)
(0.999183 0.000624325 0)
(0.999149 0.000643472 0)
(0.998901 0.000761502 0)
(0.998723 0.000881319 0)
(0.998747 0.000955493 0)
(0.998802 0.00102783 0)
(0.998728 0.00114819 0)
(0.998558 0.00131321 0)
(0.998462 0.00145927 0)
(0.998504 0.00155717 0)
(0.998593 0.00163108 0)
(0.998598 0.00171544 0)
(0.998506 0.00182152 0)
(0.998389 0.00192694 0)
(0.998315 0.00201314 0)
(0.998294 0.00208577 0)
(0.998311 0.00213986 0)
(0.998297 0.00219022 0)
(0.998221 0.0022513 0)
(0.998103 0.00231631 0)
(0.997965 0.00238359 0)
(0.997816 0.0024404 0)
(0.997598 0.00249168 0)
(0.997208 0.00253572 0)
(0.999667 -0.00129744 0)
(0.998989 0.00139108 0)
(1.00046 -0.000238427 0)
(0.999679 -0.000422045 0)
(0.99932 0.000627773 0)
(1.00021 0.000133565 0)
(0.999971 -0.0002699 0)
(0.999282 0.000189526 0)
(0.999546 0.00033669 0)
(0.99985 0.000175566 0)
(0.99952 0.000238555 0)
(0.9993 0.000343279 0)
(0.999433 0.000302 0)
(0.999386 0.00035398 0)
(0.999123 0.000554004 0)
(0.999039 0.000682951 0)
(0.99918 0.000678038 0)
(0.999198 0.000690486 0)
(0.998997 0.000807928 0)
(0.998807 0.000950295 0)
(0.998806 0.00103951 0)
(0.998878 0.00110223 0)
(0.998857 0.00119409 0)
(0.998722 0.00133426 0)
(0.998606 0.0014806 0)
(0.998609 0.00158629 0)
(0.998691 0.00165498 0)
(0.998728 0.00172318 0)
(0.998672 0.00181099 0)
(0.998559 0.00191063 0)
(0.998469 0.00200034 0)
(0.998428 0.00207419 0)
(0.998428 0.00213304 0)
(0.998424 0.00218123 0)
(0.998374 0.00223383 0)
(0.998279 0.0022902 0)
(0.998149 0.00234983 0)
(0.997991 0.00240476 0)
(0.997763 0.002453 0)
(0.997366 0.00249578 0)
(0.999744 -0.00105627 0)
(0.99913 0.00105895 0)
(1.00029 -8.84827e-05 0)
(0.999792 -0.000393696 0)
(0.999398 0.000513174 0)
(1.00008 0.000183759 0)
(0.999978 -0.000208697 0)
(0.999381 0.000188267 0)
(0.999539 0.000356127 0)
(0.999827 0.000192669 0)
(0.999557 0.000241682 0)
(0.999315 0.000392545 0)
(0.999427 0.000378872 0)
(0.999445 0.00038814 0)
(0.99922 0.000556645 0)
(0.999083 0.000712384 0)
(0.999178 0.000741392 0)
(0.999236 0.000747551 0)
(0.999097 0.000842705 0)
(0.99891 0.000992484 0)
(0.998877 0.0011024 0)
(0.998948 0.00116689 0)
(0.998971 0.00124021 0)
(0.998884 0.00135281 0)
(0.99877 0.00148851 0)
(0.998733 0.00160355 0)
(0.998787 0.0016782 0)
(0.99884 0.00173731 0)
(0.998821 0.0018063 0)
(0.998732 0.00189111 0)
(0.998635 0.00197769 0)
(0.998574 0.00205206 0)
(0.998554 0.00211375 0)
(0.998546 0.00216266 0)
(0.998513 0.00220977 0)
(0.998438 0.00225847 0)
(0.998323 0.00230931 0)
(0.998164 0.00235896 0)
(0.99793 0.0024035 0)
(0.997525 0.00244379 0)
(0.99981 -0.000832398 0)
(0.999271 0.000762349 0)
(1.00015 3.16236e-05 0)
(0.999875 -0.000345692 0)
(0.999482 0.00039807 0)
(0.999977 0.000228366 0)
(0.999977 -0.00013849 0)
(0.99948 0.000178968 0)
(0.999534 0.000373147 0)
(0.999796 0.000226941 0)
(0.999605 0.000245626 0)
(0.999356 0.000422338 0)
(0.99942 0.000455451 0)
(0.99948 0.000441796 0)
(0.999314 0.000562471 0)
(0.99915 0.000727323 0)
(0.999193 0.000796968 0)
(0.999268 0.000812563 0)
(0.999196 0.000882611 0)
(0.999035 0.00102158 0)
(0.998968 0.00114863 0)
(0.999016 0.00122485 0)
(0.999064 0.00128784 0)
(0.999025 0.00137534 0)
(0.998936 0.00148984 0)
(0.998877 0.00160273 0)
(0.998894 0.001687 0)
(0.99894 0.00174615 0)
(0.99895 0.00180354 0)
(0.998894 0.00187173 0)
(0.998809 0.0019486 0)
(0.998738 0.00202113 0)
(0.998699 0.00208379 0)
(0.998679 0.00213501 0)
(0.99865 0.00218019 0)
(0.998589 0.00222399 0)
(0.998487 0.0022679 0)
(0.998333 0.00231163 0)
(0.998097 0.00235201 0)
(0.997687 0.00238909 0)
(0.999866 -0.000634191 0)
(0.999408 0.000512355 0)
(1.00004 0.000118 0)
(0.999929 -0.00027883 0)
(0.999572 0.000288828 0)
(0.999894 0.000262235 0)
(0.999961 -5.94345e-05 0)
(0.999574 0.000161932 0)
(0.999545 0.000378426 0)
(0.99976 0.000278271 0)
(0.999646 0.000262771 0)
(0.999414 0.000433112 0)
(0.999424 0.000512825 0)
(0.9995 0.000504756 0)
(0.9994 0.000581733 0)
(0.999238 0.000737004 0)
(0.999229 0.00083982 0)
(0.999296 0.000875441 0)
(0.999278 0.000928986 0)
(0.999162 0.00104216 0)
(0.999082 0.00117107 0)
(0.999097 0.00126292 0)
(0.999149 0.00132684 0)
(0.999147 0.00139844 0)
(0.999093 0.00149107 0)
(0.999034 0.00159248 0)
(0.999022 0.00167986 0)
(0.999046 0.00174496 0)
(0.999063 0.00179874 0)
(0.999037 0.00185507 0)
(0.998974 0.00191918 0)
(0.998906 0.00198457 0)
(0.998856 0.00204458 0)
(0.998822 0.00209593 0)
(0.998788 0.00214001 0)
(0.998732 0.00218054 0)
(0.99864 0.00221944 0)
(0.998493 0.00225755 0)
(0.998258 0.00229358 0)
(0.997845 0.00232691 0)
(0.99991 -0.000464181 0)
(0.999535 0.000313593 0)
(0.999959 0.000165073 0)
(0.999955 -0.000195094 0)
(0.999659 0.000197823 0)
(0.999839 0.000273159 0)
(0.999935 2.4027e-05 0)
(0.999657 0.0001558 0)
(0.999571 0.00036983 0)
(0.999727 0.000329755 0)
(0.999678 0.00029721 0)
(0.999486 0.000440073 0)
(0.999448 0.000551395 0)
(0.999512 0.000568364 0)
(0.999469 0.000617128 0)
(0.999336 0.00074554 0)
(0.999292 0.000865175 0)
(0.999334 0.000926433 0)
(0.999347 0.000978029 0)
(0.99928 0.00106708 0)
(0.999208 0.00118299 0)
(0.999196 0.00128264 0)
(0.999234 0.0013538 0)
(0.999253 0.00141814 0)
(0.999231 0.00149339 0)
(0.999187 0.00157898 0)
(0.999163 0.00166123 0)
(0.999166 0.00172906 0)
(0.999177 0.00178437 0)
(0.999165 0.00183542 0)
(0.999125 0.00188954 0)
(0.999069 0.00194601 0)
(0.999017 0.00200044 0)
(0.998973 0.00204931 0)
(0.998932 0.00209188 0)
(0.998875 0.00213006 0)
(0.998787 0.0021654 0)
(0.998645 0.0021991 0)
(0.998412 0.00223097 0)
(0.998 0.0022607 0)
(0.999942 -0.00032579 0)
(0.99965 0.00016917 0)
(0.99991 0.000176102 0)
(0.999959 -0.00010822 0)
(0.999737 0.000136228 0)
(0.999812 0.000266026 0)
(0.999904 0.000102627 0)
(0.999722 0.000165653 0)
(0.999614 0.000354916 0)
(0.999707 0.000373251 0)
(0.999697 0.000345015 0)
(0.999556 0.000450349 0)
(0.999491 0.000571198 0)
(0.99953 0.000620068 0)
(0.999522 0.000661875 0)
(0.99943 0.000761357 0)
(0.999375 0.000879684 0)
(0.999388 0.000960484 0)
(0.999411 0.00101866 0)
(0.999382 0.00109292 0)
(0.999333 0.00118999 0)
(0.999311 0.00128619 0)
(0.999331 0.00136322 0)
(0.999353 0.0014272 0)
(0.999353 0.00149247 0)
(0.999329 0.00156407 0)
(0.999307 0.00163702 0)
(0.999298 0.00170253 0)
(0.999299 0.00175833 0)
(0.99929 0.00180774 0)
(0.999264 0.0018558 0)
(0.99922 0.00190447 0)
(0.999173 0.00195216 0)
(0.999125 0.00199654 0)
(0.999077 0.00203628 0)
(0.999016 0.00207183 0)
(0.998929 0.00210419 0)
(0.99879 0.00213432 0)
(0.998559 0.00216257 0)
(0.998147 0.00218893 0)
(0.999965 -0.000218374 0)
(0.999746 7.57472e-05 0)
(0.999887 0.000160915 0)
(0.999952 -2.99542e-05 0)
(0.999799 0.000106276 0)
(0.999808 0.00024754 0)
(0.999878 0.000166555 0)
(0.999769 0.00019257 0)
(0.999663 0.000342923 0)
(0.999704 0.000401068 0)
(0.999711 0.000394199 0)
(0.99962 0.000470977 0)
(0.99955 0.000583884 0)
(0.999562 0.000656707 0)
(0.999568 0.000704812 0)
(0.999513 0.000784309 0)
(0.999466 0.000889554 0)
(0.99946 0.000978837 0)
(0.999479 0.0010463 0)
(0.999473 0.00111473 0)
(0.999449 0.0011964 0)
(0.999429 0.00128251 0)
(0.999438 0.00135911 0)
(0.999455 0.00142389 0)
(0.999466 0.00148422 0)
(0.999459 0.001546 0)
(0.999445 0.00160912 0)
(0.999433 0.00166908 0)
(0.999428 0.0017227 0)
(0.999417 0.00177043 0)
(0.999396 0.0018148 0)
(0.999362 0.00185777 0)
(0.99932 0.00189944 0)
(0.999272 0.00193882 0)
(0.999221 0.00197484 0)
(0.999157 0.0020074 0)
(0.999068 0.00203691 0)
(0.998929 0.00206401 0)
(0.998699 0.00208915 0)
(0.998288 0.0021125 0)
(0.99998 -0.00013937 0)
(0.999822 2.49911e-05 0)
(0.999885 0.000134889 0)
(0.999942 2.99044e-05 0)
(0.999845 0.000101297 0)
(0.999821 0.000228639 0)
(0.999861 0.000211584 0)
(0.999801 0.000227235 0)
(0.999714 0.000339681 0)
(0.999718 0.000417687 0)
(0.999725 0.000437027 0)
(0.999673 0.000498576 0)
(0.999613 0.000595039 0)
(0.999607 0.000679357 0)
(0.999614 0.000738178 0)
(0.999587 0.000808828 0)
(0.999556 0.000899166 0)
(0.999543 0.000986671 0)
(0.999555 0.00105952 0)
(0.99956 0.00112653 0)
(0.999555 0.00119804 0)
(0.999544 0.0012733 0)
(0.99955 0.0013448 0)
(0.999563 0.00140814 0)
(0.999577 0.00146561 0)
(0.999579 0.00152105 0)
(0.999576 0.00157622 0)
(0.999566 0.00162962 0)
(0.999558 0.00167913 0)
(0.999545 0.00172406 0)
(0.999526 0.00176534 0)
(0.999496 0.00180415 0)
(0.999458 0.00184103 0)
(0.999412 0.00187575 0)
(0.99936 0.00190788 0)
(0.999293 0.0019372 0)
(0.999203 0.00196385 0)
(0.999063 0.00198819 0)
(0.998833 0.00201056 0)
(0.998422 0.00203122 0)
(0.999989 -8.37619e-05 0)
(0.999878 4.66614e-06 0)
(0.999896 0.000109288 0)
(0.999934 7.03735e-05 0)
(0.999876 0.000112229 0)
(0.999841 0.000216328 0)
(0.999857 0.000240669 0)
(0.999824 0.000262782 0)
(0.99976 0.000346699 0)
(0.999746 0.000428354 0)
(0.999747 0.000469011 0)
(0.99972 0.000526836 0)
(0.999675 0.000608125 0)
(0.999663 0.000693722 0)
(0.999666 0.000759997 0)
(0.999656 0.000828245 0)
(0.999641 0.000907183 0)
(0.999629 0.000987734 0)
(0.999638 0.00106079 0)
(0.999647 0.00112703 0)
(0.999653 0.00119216 0)
(0.999653 0.00125849 0)
(0.999661 0.00132307 0)
(0.999672 0.00138236 0)
(0.999687 0.0014364 0)
(0.999694 0.00148714 0)
(0.999697 0.00153612 0)
(0.999693 0.0015833 0)
(0.999686 0.00162782 0)
(0.999672 0.00166906 0)
(0.999654 0.00170716 0)
(0.999625 0.00174258 0)
(0.99959 0.00177573 0)
(0.999546 0.00180666 0)
(0.999493 0.00183532 0)
(0.999424 0.0018616 0)
(0.999332 0.0018856 0)
(0.999191 0.00190751 0)
(0.99896 0.0019276 0)
(0.998548 0.00194608 0)
(0.999994 -4.60948e-05 0)
(0.999919 2.79901e-06 0)
(0.999912 9.0824e-05 0)
(0.999932 9.54646e-05 0)
(0.999898 0.000129691 0)
(0.999864 0.00021285 0)
(0.999863 0.000259342 0)
(0.999844 0.000293054 0)
(0.9998 0.000360127 0)
(0.999781 0.000437275 0)
(0.999776 0.000490997 0)
(0.999763 0.000550555 0)
(0.999735 0.00062123 0)
(0.999724 0.000702492 0)
(0.999724 0.000771092 0)
(0.999723 0.000839241 0)
(0.99972 0.000910508 0)
(0.999715 0.000983269 0)
(0.999724 0.00105271 0)
(0.999734 0.00111645 0)
(0.999747 0.00117676 0)
(0.999754 0.001236 0)
(0.999767 0.00129342 0)
(0.999779 0.00134706 0)
(0.999794 0.00139652 0)
(0.999805 0.0014426 0)
(0.999813 0.00148621 0)
(0.999812 0.00152772 0)
(0.999808 0.00156707 0)
(0.999796 0.00160396 0)
(0.999778 0.00163827 0)
(0.999751 0.00167011 0)
(0.999717 0.00169968 0)
(0.999673 0.00172711 0)
(0.99962 0.00175245 0)
(0.999551 0.00177573 0)
(0.999457 0.00179704 0)
(0.999315 0.00181653 0)
(0.999083 0.0018344 0)
(0.998671 0.00185084 0)
(0.999997 -2.11546e-05 0)
(0.999947 1.01839e-05 0)
(0.99993 8.1024e-05 0)
(0.999935 0.000110727 0)
(0.999914 0.000147692 0)
(0.999887 0.000216429 0)
(0.999877 0.000272167 0)
(0.999864 0.000316316 0)
(0.999836 0.000375496 0)
(0.999819 0.000446067 0)
(0.999811 0.000505497 0)
(0.999806 0.000567361 0)
(0.99979 0.000631759 0)
(0.999786 0.000707269 0)
(0.999785 0.000773773 0)
(0.99979 0.000841153 0)
(0.999795 0.000906434 0)
(0.999797 0.000972426 0)
(0.999809 0.00103663 0)
(0.99982 0.00109634 0)
(0.999837 0.00115252 0)
(0.99985 0.00120654 0)
(0.999866 0.00125828 0)
(0.999879 0.00130711 0)
(0.999896 0.00135287 0)
(0.999909 0.00139561 0)
(0.99992 0.00143583 0)
(0.999923 0.00147389 0)
(0.999922 0.00150998 0)
(0.999912 0.00154399 0)
(0.999896 0.0015758 0)
(0.999869 0.00160534 0)
(0.999836 0.00163266 0)
(0.999792 0.00165777 0)
(0.999738 0.00168074 0)
(0.999668 0.00170157 0)
(0.999573 0.00172041 0)
(0.99943 0.0017374 0)
(0.999198 0.00175277 0)
(0.998785 0.00176669 0)
(0.999998 -4.79827e-06 0)
(0.999965 2.0815e-05 0)
(0.999946 7.85788e-05 0)
(0.999943 0.00012068 0)
(0.999929 0.000163156 0)
(0.999908 0.000223894 0)
(0.999896 0.000282049 0)
(0.999886 0.000332872 0)
(0.99987 0.000389037 0)
(0.999858 0.000453883 0)
(0.999851 0.000513967 0)
(0.999851 0.000576763 0)
(0.999844 0.000637014 0)
(0.999845 0.000707548 0)
(0.999847 0.000768918 0)
(0.999856 0.000834446 0)
(0.999866 0.000892697 0)
(0.999874 0.000952234 0)
(0.99989 0.00100828 0)
(0.999904 0.00106057 0)
(0.999924 0.0011091 0)
(0.999942 0.00115478 0)
(0.999963 0.00119734 0)
(0.99998 0.00123753 0)
(1 0.00127513 0)
(1.00002 0.00131057 0)
(1.00003 0.00134392 0)
(1.00004 0.00137599 0)
(1.00004 0.00140681 0)
(1.00003 0.00143667 0)
(1.00002 0.00146538 0)
(0.999993 0.00149308 0)
(0.999959 0.00151955 0)
(0.999913 0.00154482 0)
(0.999857 0.00156865 0)
(0.999782 0.0015911 0)
(0.999683 0.00161205 0)
(0.999535 0.00163164 0)
(0.999299 0.0016498 0)
(0.998883 0.00166667 0)
(0.999999 5.86971e-06 0)