/*--------------------------------*- C++ -*----------------------------------*\
| =========                 |                                                 |
| \\      /  F ield         | OpenFOAM: The Open Source CFD Toolbox           |
|  \\    /   O peration     | Version:  2312                                  |
|   \\  /    A nd           | Website:  www.openfoam.com                      |
|    \\/     M anipulation  |                                                 |
\*---------------------------------------------------------------------------*/
FoamFile
{
    version     2.0;
    format      ascii;
    arch        "LSB;label=32;scalar=64";
    class       volScalarField;
    location    "0.8";
    object      p;
}
// * * * * * * * * * * * * * * * * * * * * * * * * * * * * * * * * * * * * * //

dimensions      [0 2 -2 0 0 0 0];

internalField   nonuniform List<scalar> 
5600
(
1.71546e-08
0.000473887
0.000303598
0.000443004
0.000370321
0.000527501
0.000507528
0.000651145
0.000670304
0.00080535
0.000864809
0.000994616
0.00107785
0.00120612
0.00131651
0.00144988
0.00157355
0.00171304
0.00185748
0.00200975
0.00216741
0.00233597
0.00251327
0.002704
0.00290028
0.00310782
0.00331978
0.00354375
0.0037747
0.00402064
0.00427802
0.00455405
0.00484342
0.00514352
0.00544233
0.00573052
0.00601524
0.00629461
0.00650557
0.00647368
2.64188e-06
0.000470957
0.000305453
0.000440178
0.000372862
0.000523791
0.000510179
0.000647058
0.000672983
0.00080067
0.000866944
0.00098973
0.00107859
0.00120117
0.00131578
0.00144477
0.00157007
0.00170722
0.00185238
0.00200521
0.00216201
0.00232958
0.00250473
0.00269195
0.00288664
0.00309106
0.00330243
0.00352385
0.00375388
0.00399359
0.00423904
0.00448486
0.00472424
0.00495822
0.00518912
0.00540754
0.00558688
0.00568401
0.00562757
0.00529382
5.00163e-06
0.000469277
0.000306462
0.000439014
0.000373867
0.000522068
0.000511
0.00064524
0.000673494
0.000798725
0.000867123
0.000987866
0.00107812
0.00119948
0.00131439
0.00144286
0.00156778
0.00170473
0.00184922
0.00200096
0.00215728
0.00232417
0.00249773
0.00268369
0.0028765
0.00307929
0.00328777
0.00350482
0.00372707
0.00395572
0.00418636
0.00441363
0.00463228
0.00484579
0.00505456
0.00524719
0.00539624
0.00546481
0.00539131
0.00506866
8.97833e-06
0.000465104
0.000308848
0.000435251
0.00037691
0.000517091
0.000514271
0.000639954
0.000676711
0.000792819
0.000869611
0.000981705
0.00107868
0.00119322
0.0013131
0.00143756
0.00156334
0.00169944
0.00184297
0.00199354
0.00214931
0.00231345
0.00248575
0.00266788
0.0028582
0.00305684
0.00326241
0.00347423
0.00368778
0.0038967
0.00409821
0.00429579
0.00449168
0.0046823
0.0048565
0.00499679
0.00507826
0.00506703
0.00491062
0.0045156
1.25722e-05
0.000461293
0.000310829
0.00043268
0.000378995
0.000513442
0.000515871
0.000636198
0.00067762
0.000789282
0.000869656
0.000978508
0.00107758
0.00118985
0.00130986
0.00143394
0.00155839
0.00169338
0.00183608
0.00198528
0.00213951
0.00230147
0.00247124
0.00265012
0.0028365
0.00302959
0.00322688
0.00342688
0.00362665
0.00382231
0.00400802
0.00418425
0.00435634
0.00452188
0.00466823
0.00477753
0.00482789
0.0047911
0.00462126
0.00423111
1.75293e-05
0.000455205
0.000314308
0.000427664
0.000383049
0.000506827
0.000520048
0.000629559
0.000680931
0.00078216
0.000871041
0.000972444
0.00107519
0.00118665
0.0013053
0.00142775
0.00155134
0.00168513
0.00182693
0.001974
0.00212648
0.00228536
0.00245177
0.00262595
0.00280699
0.00299383
0.00318327
0.00337006
0.00354828
0.00371853
0.0038847
0.00404886
0.00420835
0.00435601
0.00448007
0.00456518
0.00459134
0.00453051
0.00433719
0.00392483
2.24294e-05
0.000448827
0.000317525
0.000423522
0.000386261
0.000500981
0.000522128
0.000624057
0.000681806
0.000777944
0.000870167
0.000969317
0.00107145
0.00118199
0.00129952
0.0014208
0.00154316
0.00167564
0.00181572
0.0019605
0.00211027
0.00226569
0.00242752
0.00259586
0.00276887
0.00294447
0.00311954
0.00329142
0.00345597
0.00361038
0.00376019
0.00390955
0.0040543
0.00418565
0.00429259
0.00436208
0.00437627
0.00430868
0.00411337
0.00370004
2.87197e-05
0.000440009
0.000322347
0.000416991
0.000391536
0.000492613
0.000526833
0.000616314
0.000683061
0.000771863
0.000867273
0.000966643
0.00106633
0.0011756
0.00129226
0.00141252
0.00153302
0.00166384
0.00180165
0.00194379
0.00209
0.00224137
0.00239727
0.00255804
0.00272093
0.00288431
0.00304369
0.00319445
0.00333876
0.00348153
0.00362369
0.00376315
0.00389476
0.00401198
0.00410566
0.00416534
0.00417539
0.00411166
0.00392994
0.00354212
3.52691e-05
0.000430247
0.000327038
0.000411141
0.000395559
0.000484578
0.000528536
0.000610289
0.000682674
0.00076895
0.000863541
0.000961751
0.00106038
0.00116817
0.00128391
0.00140238
0.00152102
0.00164935
0.00178481
0.00192334
0.00206536
0.00221152
0.00236113
0.00251299
0.00266245
0.00280484
0.00294116
0.00307588
0.00321036
0.00334412
0.0034758
0.0036046
0.00372856
0.00384489
0.00394759
0.00402668
0.00406429
0.00402891
0.00385896
0.0034308
4.32632e-05
0.000417873
0.000333071
0.000403317
0.000401806
0.000474855
0.000532174
0.000602666
0.000678521
0.000765882
0.000859492
0.000955196
0.00105366
0.00115907
0.00127408
0.00138975
0.0015068
0.00163162
0.00176464
0.00189849
0.00203547
0.00217403
0.00231402
0.0024522
0.00258441
0.00271075
0.00283546
0.00296017
0.00308252
0.0031977
0.0033021
0.00339489
0.0034798
0.00356424
0.00365157
0.00373273
0.00380607
0.00389806
0.00408008
0.00449155
5.18184e-05
0.000403866
0.000339243
0.000395931
0.000405508
0.000465711
0.000531511
0.000600466
0.000674462
0.000760828
0.000853603
0.000947785
0.00104517
0.0011486
0.00126201
0.00137521
0.00148954
0.0016107
0.00174
0.00186881
0.00199911
0.00212824
0.00225392
0.00237457
0.00249261
0.00261016
0.00272686
0.00283968
0.0029466
0.00304648
0.00314111
0.00323511
0.00333417
0.00343753
0.00353553
0.00362333
0.0037099
0.00382247
0.00401433
0.00438632
6.18682e-05
0.000387115
0.000345613
0.000388406
0.000411057
0.000458165
0.000525414
0.000596709
0.000670523
0.000755164
0.000846301
0.000939108
0.00103462
0.00113641
0.00124733
0.00135825
0.00146886
0.001586
0.00170998
0.00183178
0.0019517
0.00206806
0.00217928
0.00228841
0.00239836
0.00250863
0.00261636
0.00271882
0.00281537
0.00290907
0.00300548
0.00310584
0.00320264
0.0032892
0.00336521
0.00343874
0.00352674
0.00365828
0.00388351
0.00429824
7.25945e-05
0.000368743
0.000352005
0.00038059
0.000411084
0.000454708
0.00051964
0.000591389
0.000665005
0.000748878
0.000838229
0.000928906
0.00102219
0.00112191
0.00123
0.001338
0.00144445
0.00155647
0.00167436
0.00178687
0.00189216
0.00199356
0.0020951
0.00219676
0.00229659
0.00239436
0.00249276
0.00259609
0.00270308
0.00280735
0.00290334
0.00298869
0.00306388
0.00313172
0.00319718
0.00326991
0.00336577
0.00350978
0.00374603
0.00416251
8.4823e-05
0.000346959
0.000356956
0.000377554
0.000408882
0.000450816
0.00051393
0.000583995
0.000656572
0.000740838
0.000828674
0.000916931
0.00100757
0.00110479
0.00120966
0.0013139
0.00141516
0.00151969
0.00162788
0.00172832
0.00182229
0.00191693
0.0020143
0.00211277
0.00221004
0.00230457
0.00239486
0.00248034
0.00256149
0.00264196
0.00272697
0.00281556
0.0028991
0.00297262
0.00303996
0.00311237
0.00320699
0.00334956
0.00358384
0.00399664
9.75662e-05
0.000326238
0.000358367
0.000373778
0.000403763
0.000445634
0.000508647
0.000577919
0.000648388
0.000730637
0.000816634
0.000902595
0.000990346
0.00108458
0.00118576
0.00128505
0.00137957
0.00147431
0.00157068
0.00166171
0.00174924
0.0018377
0.00192684
0.00201434
0.00209894
0.00218295
0.00227005
0.00236248
0.00245548
0.00254281
0.00262074
0.00268888
0.00274905
0.0028051
0.00286292
0.00293163
0.00302549
0.00316813
0.00340237
0.00381554
0.000111278
0.000305043
0.000354482
0.000371356
0.000400274
0.000440554
0.000502257
0.000570065
0.000637942
0.000718157
0.00080229
0.000885581
0.000970077
0.00106063
0.00115718
0.00124964
0.00133499
0.00141926
0.0015074
0.00159274
0.00167364
0.00175272
0.00183115
0.00190977
0.00199056
0.00207651
0.00216693
0.0022573
0.00234181
0.00241654
0.00248023
0.00253436
0.00258236
0.00262923
0.00268145
0.00274785
0.00284166
0.00298523
0.00322041
0.00363394
0.000125224
0.000285521
0.000346084
0.000367943
0.00039587
0.000434233
0.000494424
0.000560747
0.000626108
0.000703845
0.000785541
0.000865544
0.00094613
0.0010321
0.00112238
0.0012061
0.00128163
0.00135863
0.00144111
0.00152124
0.00159677
0.00167097
0.00174527
0.00181853
0.00188933
0.00195858
0.00202884
0.0021036
0.00218221
0.00225755
0.0023227
0.00237581
0.00242038
0.00246277
0.00251069
0.00257367
0.00266516
0.00280739
0.00304192
0.00345526
0.000139152
0.000266653
0.000333132
0.000363326
0.000391751
0.000427883
0.000485838
0.000550191
0.000612535
0.000687169
0.000765821
0.00084139
0.000916968
0.000997251
0.00107977
0.00115511
0.0012247
0.00129625
0.00137199
0.00144312
0.0015063
0.00156656
0.00162984
0.00169988
0.00177633
0.00185517
0.00193205
0.00200397
0.00206855
0.00212471
0.00217256
0.00221374
0.00225106
0.0022891
0.00233417
0.00239505
0.00248483
0.0026256
0.00285892
0.0032715
0.000153005
0.000250201
0.000314596
0.00035638
0.000386935
0.00042084
0.000476186
0.000537971
0.00059663
0.000667575
0.000742986
0.000813243
0.000881024
0.000952767
0.00102881
0.00110032
0.00116564
0.00123066
0.00129897
0.0013641
0.00142266
0.00147843
0.00153515
0.0015937
0.00165338
0.00171556
0.00178238
0.00185217
0.0019178
0.00197324
0.00201691
0.00205161
0.00208257
0.00211572
0.00215759
0.00221641
0.00230477
0.00244444
0.002677
0.00308927
0.000163557
0.000236547
0.000296715
0.000344691
0.000379696
0.000412534
0.000465512
0.000524991
0.000579058
0.000643671
0.000712765
0.000776635
0.000839274
0.000906486
0.000977641
0.00104337
0.00110177
0.001159
0.00121902
0.0012759
0.00132498
0.00136995
0.00141659
0.00146866
0.0015271
0.00159168
0.00165887
0.0017234
0.00178003
0.00182583
0.0018611
0.0018891
0.00191482
0.00194401
0.00198306
0.00204009
0.00212736
0.00226638
0.00249852
0.00291059
0.000170958
0.000227187
0.000278253
0.00032715
0.000368796
0.000402352
0.000452807
0.000509099
0.000557843
0.000616329
0.000680166
0.000738354
0.000794854
0.000855916
0.000920409
0.000979315
0.00103016
0.00107918
0.00113115
0.00118135
0.00122509
0.00126522
0.00130719
0.00135405
0.00140589
0.00146257
0.00152278
0.00158083
0.00163057
0.00166912
0.00169769
0.00172028
0.00174208
0.0017686
0.0018059
0.00186172
0.00194817
0.00208658
0.00231821
0.00272992
0.000175366
0.000218079
0.000260821
0.000307727
0.00035337
0.000388529
0.000436815
0.000490304
0.000534373
0.000586597
0.000644791
0.000696149
0.000745023
0.000799067
0.000856429
0.000908496
0.000952276
0.000993306
0.00103722
0.00108022
0.00111733
0.00115076
0.00118754
0.0012329
0.00128697
0.00134449
0.00139829
0.00144375
0.00147954
0.00150672
0.00152779
0.00154618
0.00156587
0.00159133
0.00162796
0.0016833
0.00176932
0.00190736
0.00213874
0.00255047
0.000176515
0.000209008
0.000244682
0.000287905
0.000332931
0.000369362
0.000416584
0.000468009
0.000507662
0.00055358
0.000605708
0.000649934
0.000690111
0.000736527
0.000786888
0.000831671
0.000868435
0.000901687
0.000937693
0.000974243
0.00100692
0.00103728
0.00107181
0.00111576
0.00116799
0.00122048
0.00126508
0.00129869
0.00132275
0.00134063
0.00135572
0.001371
0.00138946
0.00141465
0.00145133
0.00150666
0.00159251
0.00173027
0.00196141
0.0023731
0.000174235
0.000199339
0.00022865
0.000267198
0.000309706
0.000345089
0.000390902
0.000441173
0.00047709
0.000516651
0.000562831
0.000600306
0.00063125
0.000668649
0.000711686
0.000748899
0.000778423
0.000804391
0.000833227
0.000864429
0.00089416
0.000923071
0.000956528
0.000998866
0.00104634
0.00109029
0.00112404
0.00114668
0.00116144
0.00117266
0.00118374
0.00119716
0.00121509
0.00124027
0.00127695
0.00133208
0.00141757
0.00155492
0.00178574
0.00219738
0.000168203
0.000188374
0.000212438
0.000246093
0.000285282
0.000316744
0.000357945
0.000406989
0.000440587
0.000474463
0.000515022
0.000547326
0.00057029
0.000597406
0.000632105
0.000661792
0.000683538
0.000702081
0.000724269
0.000751372
0.000780169
0.00081004
0.000843418
0.000881479
0.000920342
0.000953671
0.000977081
0.000990933
0.000998935
0.00100549
0.00101389
0.00102609
0.00104362
0.00106868
0.00110519
0.00115997
0.001245
0.00138193
0.00161256
0.00202428
0.000158756
0.000175015
0.000194742
0.000223214
0.000259168
0.000287992
0.000323051
0.000366697
0.000396352
0.000423098
0.000457661
0.000487638
0.000506527
0.000524116
0.000549405
0.000571833
0.000585822
0.000596453
0.000611841
0.000635387
0.000664187
0.000695044
0.000725945
0.000756872
0.000786105
0.000810043
0.00082582
0.000833885
0.000837499
0.000840724
0.000846725
0.000857417
0.000874163
0.000898858
0.000935111
0.00098962
0.00107432
0.00121091
0.00144121
0.00185284
0.000145759
0.000158905
0.000174864
0.000198202
0.000229722
0.000254948
0.000283585
0.000322066
0.000348619
0.000369121
0.000396634
0.000422021
0.000437189
0.000447119
0.000463306
0.0004801
0.000489627
0.000494855
0.000503822
0.000521511
0.00054587
0.000573133
0.00059992
0.000624964
0.00064725
0.000664778
0.000675693
0.00068022
0.000680962
0.000681564
0.000685232
0.000694092
0.00070962
0.000733637
0.000769574
0.000823922
0.000908523
0.0010451
0.00127558
0.00168764
0.000128751
0.000139431
0.00015211
0.000170303
0.00019691
0.000218791
0.000241329
0.000273683
0.000297254
0.000311965
0.000331396
0.00035034
0.000360911
0.000363665
0.000369349
0.000378198
0.000382697
0.000382822
0.000385677
0.000398225
0.000420382
0.000446819
0.000470874
0.000489951
0.000504471
0.00051489
0.000520906
0.00052266
0.000521747
0.000520877
0.000522897
0.000530052
0.000544084
0.000566975
0.00060215
0.000656011
0.000740333
0.00087679
0.00110733
0.0015197
0.000108663
0.00011652
0.000125767
0.000139055
0.00016053
0.000178826
0.000195542
0.00022108
0.000241268
0.000251268
0.000263799
0.000277368
0.000285183
0.000285139
0.000284744
0.00028771
0.000288964
0.000286288
0.00028411
0.000289437
0.000304615
0.000325547
0.000344563
0.000357405
0.000364492
0.000367871
0.000368908
0.000368178
0.000366491
0.000365389
0.000366887
0.000373014
0.000385719
0.000407289
0.000441314
0.00049418
0.000577511
0.000712927
0.000942395
0.00135373
8.3222e-05
8.95771e-05
9.6237e-05
0.000105114
0.000121285
0.000135522
0.000146378
0.00016388
0.000179213
0.000184072
0.00018786
0.000192317
0.000192438
0.000185183
0.000175062
0.00016778
0.000162614
0.000158147
0.000156769
0.000163244
0.00017801
0.000195588
0.000209536
0.000217004
0.000219067
0.000218176
0.000216006
0.000213203
0.000210368
0.000208742
0.000210212
0.000216815
0.000230567
0.000253821
0.000290132
0.000345751
0.000432118
0.000570647
0.000803182
0.00121757
5.60847e-05
5.7059e-05
6.04542e-05
6.59636e-05
7.88211e-05
8.98624e-05
9.65787e-05
0.000106924
0.000118253
0.000121509
0.00012277
0.000125341
0.000126529
0.000122733
0.000115451
0.000108018
0.00010028
8.98281e-05
7.6427e-05
6.2487e-05
5.10476e-05
4.40191e-05
4.28043e-05
4.82786e-05
5.82839e-05
6.79964e-05
7.30646e-05
7.14636e-05
6.37967e-05
5.25184e-05
4.10452e-05
3.29503e-05
3.16401e-05
4.04919e-05
6.37472e-05
0.00010799
0.000184822
0.000315754
0.000542875
0.000954556
2.07188e-05
2.35949e-05
2.48184e-05
2.48946e-05
2.98576e-05
3.46797e-05
3.5446e-05
3.81779e-05
4.17917e-05
3.86228e-05
3.06141e-05
2.16844e-05
1.08449e-05
-3.96408e-06
-2.18909e-05
-3.94217e-05
-5.43829e-05
-6.61503e-05
-7.35591e-05
-7.43531e-05
-6.7878e-05
-5.77362e-05
-4.93366e-05
-4.63225e-05
-4.89869e-05
-5.53056e-05
-6.27079e-05
-6.92038e-05
-7.35275e-05
-7.47662e-05
-7.19574e-05
-6.38581e-05
-4.8776e-05
-2.42702e-05
1.35195e-05
7.11484e-05
0.000160282
0.000302487
0.000539769
0.000960221
-2.47826e-05
-1.72663e-05
-1.30193e-05
-1.31182e-05
-1.222e-05
-1.33771e-05
-1.84925e-05
-2.02137e-05
-1.85458e-05
-1.92523e-05
-2.34554e-05
-2.77062e-05
-3.25058e-05
-3.94028e-05
-4.88352e-05
-5.89079e-05
-6.89035e-05
-7.93086e-05
-9.10135e-05
-0.000103683
-0.000116766
-0.000130063
-0.000144274
-0.000160117
-0.000178108
-0.000198181
-0.000220191
-0.000244137
-0.000270422
-0.000299602
-0.0003324
-0.000369685
-0.000412849
-0.000464223
-0.000527875
-0.000610758
-0.000725033
-0.000892719
-0.00115625
-0.00160419
-6.02626e-05
-6.04064e-05
-6.42037e-05
-7.23984e-05
-7.90464e-05
-8.4167e-05
-9.28638e-05
-0.000102087
-0.000110716
-0.000123187
-0.000140621
-0.000160296
-0.000180704
-0.000202282
-0.000224388
-0.000244361
-0.000259236
-0.000267559
-0.000270081
-0.000269947
-0.000270381
-0.000273478
-0.000279965
-0.00028926
-0.000299732
-0.000309394
-0.000316633
-0.000320491
-0.000320595
-0.00031684
-0.00030899
-0.000296347
-0.000277482
-0.000249931
-0.000209622
-0.000149746
-5.84599e-05
8.58542e-05
0.000325128
0.000747298
-0.000107966
-0.000108374
-0.00011147
-0.000118278
-0.000125283
-0.00013005
-0.000137259
-0.000145748
-0.000152771
-0.000160681
-0.00017103
-0.000182497
-0.000193787
-0.000205744
-0.000219338
-0.000234429
-0.000250446
-0.000267501
-0.000286207
-0.000306924
-0.000329502
-0.000353668
-0.000379443
-0.000407172
-0.000437232
-0.000469612
-0.000504031
-0.0005402
-0.00057804
-0.00061778
-0.000659975
-0.000705555
-0.000755989
-0.000813657
-0.000882522
-0.000969346
-0.00108599
-0.00125413
-0.00151574
-0.00195878
-0.000159617
-0.000163973
-0.000173414
-0.000187075
-0.000203502
-0.000218819
-0.000235258
-0.000254075
-0.000273472
-0.000294494
-0.000318059
-0.000343077
-0.000367335
-0.000389587
-0.000408823
-0.000423405
-0.000432015
-0.000436177
-0.000439723
-0.000445962
-0.000455891
-0.000468415
-0.000481625
-0.000493814
-0.000503925
-0.000511454
-0.000516139
-0.000517798
-0.000516256
-0.000511299
-0.000502536
-0.000489217
-0.000469956
-0.000442359
-0.000402384
-0.000343197
-0.0002529
-0.000109825
0.000127977
0.00054845
-0.000210327
-0.0002129
-0.000219881
-0.000229006
-0.000240474
-0.000252379
-0.000264048
-0.000276895
-0.000290191
-0.000304435
-0.00032001
-0.000336525
-0.000353108
-0.000369898
-0.000387654
-0.00040678
-0.000427099
-0.000448449
-0.000471068
-0.000495375
-0.000521582
-0.000549608
-0.000579277
-0.000610555
-0.000643403
-0.000677773
-0.000713581
-0.000750738
-0.000789233
-0.000829245
-0.000871251
-0.000916153
-0.000965463
-0.00102164
-0.00108874
-0.00117356
-0.00128799
-0.00145368
-0.00171262
-0.00215278
-0.000278356
-0.000284531
-0.000299059
-0.000317951
-0.000339393
-0.000363624
-0.000388509
-0.000414037
-0.000439633
-0.00046544
-0.00049074
-0.000513614
-0.000531725
-0.000543978
-0.00055201
-0.000559045
-0.000567405
-0.000577756
-0.00058981
-0.000602908
-0.000616235
-0.000628848
-0.000639834
-0.000648497
-0.000654616
-0.000658288
-0.000659703
-0.000658948
-0.000655916
-0.000650264
-0.000641379
-0.000628293
-0.000609476
-0.000582472
-0.000543244
-0.000484984
-0.000395816
-0.000254083
-1.78294e-05
0.000400905
-0.000326544
-0.000327196
-0.000332686
-0.000342478
-0.000354488
-0.000369582
-0.000386635
-0.000404816
-0.000424156
-0.000445638
-0.000469725
-0.000494303
-0.000516547
-0.000535097
-0.000550924
-0.000565596
-0.0005805
-0.000596198
-0.000613021
-0.000631113
-0.000650669
-0.000671741
-0.000694364
-0.000718525
-0.000744179
-0.000771241
-0.000799708
-0.000829624
-0.000861158
-0.000894617
-0.000930561
-0.000969914
-0.00101419
-0.00106586
-0.00112897
-0.00121036
-0.00132194
-0.00148541
-0.0017428
-0.00218219
-0.000413192
-0.000419273
-0.000433191
-0.000454438
-0.000480537
-0.000509994
-0.000540899
-0.000570715
-0.000598256
-0.000622482
-0.000643396
-0.000660754
-0.000674894
-0.00068609
-0.000694996
-0.000702063
-0.000707773
-0.000712315
-0.000715842
-0.000718316
-0.000719716
-0.000719932
-0.000718901
-0.000716501
-0.000712696
-0.000707472
-0.000700859
-0.000692813
-0.000683207
-0.000671728
-0.000657831
-0.000640586
-0.000618487
-0.000589075
-0.00054832
-0.000489426
-0.000400569
-0.000260175
-2.64482e-05
0.000388323
0.00623553
0.00630878
0.00658931
0.00676787
0.00676613
0.00658904
0.00629574
0.00595649
0.00562341
0.00532493
0.00507205
0.00486478
0.00469551
0.00455336
0.00442768
0.00430994
0.00419424
0.00407719
0.00395733
0.00383464
0.00370995
0.00358454
0.00345969
0.00333646
0.00321548
0.00309694
0.00298062
0.00286593
0.00275213
0.00263837
0.00252387
0.00240792
0.00229003
0.00216973
0.00204678
0.00192083
0.00179156
0.00165839
0.00152069
0.00137758
0.00122812
0.00107128
0.000905909
0.000730784
0.000544214
0.000344099
0.000127333
-0.000110524
-0.000374434
-0.000668392
-0.00099583
-0.00136067
-0.00176882
-0.00222727
-0.0027496
-0.00335474
-0.00404508
-0.00480081
-0.00557929
-0.00630914
-0.00689195
-0.00722621
-0.00724878
-0.00699075
-0.00657843
-0.00613285
-0.00574427
-0.00544545
-0.00525131
-0.00515546
-0.00512284
-0.00513743
-0.00518816
-0.00525439
-0.00533059
-0.00541616
-0.00550349
-0.00559683
-0.00569441
-0.00579161
-0.00589536
-0.00599961
-0.00610384
-0.00621066
-0.00631746
-0.00642386
-0.00652924
-0.00663106
-0.00673326
-0.00682846
-0.00691727
-0.00700325
-0.00708492
-0.00715531
-0.00722411
-0.00728717
-0.00734633
-0.00739959
-0.00745147
-0.00749403
0.00492315
0.00499724
0.00545002
0.00589206
0.00615838
0.0062092
0.00606921
0.00581035
0.0055091
0.00521903
0.00496712
0.00476193
0.00459988
0.00446947
0.00435715
0.00425159
0.00414539
0.00403488
0.00391914
0.00379895
0.00367597
0.00355203
0.00342866
0.00330693
0.00318742
0.00307022
0.00295506
0.00284137
0.00272841
0.00261534
0.0025014
0.00238588
0.00226829
0.00214816
0.00202527
0.0018994
0.0017703
0.00163736
0.00149994
0.00135714
0.00120798
0.00105144
0.000886344
0.000711479
0.000525155
0.000325298
0.000108861
-0.000128513
-0.000391693
-0.000684617
-0.0010106
-0.00137377
-0.00177986
-0.00223555
-0.00275353
-0.00335308
-0.00403574
-0.00478268
-0.00555364
-0.00627692
-0.00685602
-0.00719153
-0.00721891
-0.00696713
-0.00656054
-0.00611936
-0.00573391
-0.00543685
-0.00524368
-0.00514872
-0.00511672
-0.00513168
-0.00518282
-0.00524954
-0.00532616
-0.00541214
-0.00549993
-0.00559371
-0.00569165
-0.00578919
-0.00589328
-0.00599782
-0.00610229
-0.00620933
-0.00631633
-0.00642288
-0.00652841
-0.00663035
-0.00673266
-0.00682796
-0.00691684
-0.00700289
-0.00708462
-0.00715506
-0.0072239
-0.007287
-0.00734619
-0.00739949
-0.00745138
-0.00749397
0.00473191
0.00483717
0.00533169
0.00581853
0.00612565
0.00620926
0.00608976
0.00583783
0.00553282
0.00523313
0.00497
0.00475466
0.00458548
0.00445153
0.00433849
0.00423365
0.00412834
0.00401807
0.00390161
0.00377985
0.0036548
0.00352872
0.00340347
0.00328029
0.00315977
0.00304193
0.00292636
0.00281236
0.00269912
0.00258576
0.0024715
0.00235568
0.00223785
0.00211761
0.00199469
0.00186859
0.00173897
0.00160534
0.00146718
0.00132372
0.00117402
0.00101704
0.000851561
0.000676309
0.000489626
0.000289357
7.26828e-05
-0.000164497
-0.000426684
-0.000717842
-0.00104149
-0.00140158
-0.00180397
-0.00225497
-0.00276538
-0.00335278
-0.00401827
-0.00474128
-0.0054829
-0.00617859
-0.00674045
-0.00707798
-0.00712716
-0.00690463
-0.00652402
-0.0061034
-0.00573218
-0.00544196
-0.00525085
-0.00515584
-0.00512265
-0.00513622
-0.00518605
-0.00525154
-0.0053273
-0.0054127
-0.0054999
-0.00559323
-0.00569089
-0.00578817
-0.00589205
-0.00599646
-0.00610086
-0.00620788
-0.0063149
-0.00642152
-0.00652713
-0.00662916
-0.00673159
-0.00682702
-0.00691603
-0.00700221
-0.00708407
-0.00715463
-0.00722356
-0.00728676
-0.00734601
-0.00739937
-0.00745132
-0.00749393
0.00414234
0.00422692
0.00471632
0.005224
0.0055748
0.00572034
0.00567139
0.00548672
0.00523791
0.00498137
0.00474991
0.00455721
0.00440482
0.00428522
0.00418628
0.00409591
0.00400495
0.00390807
0.00380328
0.00369103
0.00357338
0.00345298
0.00333232
0.00321316
0.00309643
0.00298228
0.00287026
0.00275953
0.00264914
0.00253814
0.00242578
0.00231146
0.00219482
0.00207551
0.00195332
0.0018279
0.00169896
0.00156599
0.00142844
0.00128552
0.0011363
0.0009797
0.000814532
0.000639431
0.000452822
0.000252497
3.58615e-05
-0.000200911
-0.00046199
-0.000751287
-0.00107249
-0.0014293
-0.00182758
-0.00227316
-0.00277474
-0.00334737
-0.00399177
-0.00468834
-0.00540101
-0.00606975
-0.00661392
-0.00695162
-0.00702093
-0.00682774
-0.00647375
-0.00607427
-0.00571753
-0.00543513
-0.0052467
-0.00515261
-0.00511952
-0.00513246
-0.00518156
-0.00524673
-0.00532234
-0.00540772
-0.00549516
-0.00558876
-0.00568666
-0.00578422
-0.00588839
-0.00599306
-0.00609771
-0.00620495
-0.00631216
-0.00641895
-0.00652474
-0.00662693
-0.00672952
-0.00682512
-0.0069143
-0.00700066
-0.00708267
-0.00715341
-0.00722251
-0.00728589
-0.00734528
-0.00739883
-0.00745093
-0.00749365
0.00387673
0.00397983
0.00449426
0.00503
0.00540976
0.00558382
0.00556106
0.00539822
0.00516587
0.00492064
0.00469632
0.00450776
0.00435778
0.00424021
0.00414385
0.0040568
0.00396958
0.00387627
0.00377435
0.00366396
0.00354707
0.00342657
0.00330532
0.00318549
0.0030683
0.00295397
0.002842
0.00273137
0.00262097
0.00250974
0.00239693
0.00228198
0.00216463
0.00204465
0.00192188
0.00179602
0.00166671
0.0015334
0.00139544
0.00125204
0.0011023
0.000945165
0.000779492
0.000603876
0.000416794
0.000216055
-8.23859e-07
-0.000237373
-0.000497601
-0.000785192
-0.00110397
-0.00145735
-0.00185108
-0.00229041
-0.0027823
-0.00333934
-0.00396212
-0.00463214
-0.00531455
-0.0059535
-0.00647629
-0.00681006
-0.00689704
-0.00673543
-0.0064139
-0.00604042
-0.00570234
-0.00543188
-0.00524851
-0.00515609
-0.00512286
-0.00513477
-0.00518262
-0.00524653
-0.00532117
-0.00540596
-0.00549285
-0.00558596
-0.00568362
-0.00578093
-0.00588487
-0.00598946
-0.00609406
-0.0062013
-0.00630858
-0.00641543
-0.00652127
-0.00662356
-0.00672627
-0.00682208
-0.00691147
-0.00699808
-0.00708034
-0.00715139
-0.00722074
-0.00728444
-0.00734404
-0.00739789
-0.00745022
-0.00749312
0.00355537
0.00364992
0.00415974
0.00469619
0.00508163
0.00526578
0.00525638
0.00510884
0.00489282
0.00466444
0.00445719
0.00428556
0.00415205
0.00405013
0.00396825
0.00389436
0.00381896
0.00373624
0.00364382
0.003542
0.00343294
0.00331968
0.00320517
0.00309164
0.00298029
0.00287134
0.00276427
0.002658
0.00255141
0.00244348
0.00233352
0.00222105
0.0021059
0.0019879
0.00186696
0.00174277
0.00161498
0.00148299
0.00134621
0.00120381
0.00105496
0.000898592
0.00073364
0.000558654
0.000372162
0.000172021
-4.41827e-05
-0.000279654
-0.00053824
-0.000823344
-0.00113888
-0.00148805
-0.00187616
-0.00230808
-0.00278932
-0.00332996
-0.00393057
-0.00457319
-0.00522465
-0.00583389
-0.0063361
-0.00666678
-0.0067719
-0.00664295
-0.00635373
-0.00600587
-0.00568618
-0.0054268
-0.00524745
-0.00515525
-0.00512167
-0.00513252
-0.00517904
-0.00524209
-0.00531617
-0.0054006
-0.0054874
-0.00558051
-0.00567823
-0.00577567
-0.0058797
-0.00598446
-0.00608922
-0.00619659
-0.00630399
-0.00641099
-0.00651697
-0.00661941
-0.00672225
-0.00681828
-0.00690788
-0.00699474
-0.00707723
-0.00714864
-0.00721825
-0.00728234
-0.0073422
-0.00739646
-0.00744907
-0.00749223
0.00332809
0.00342248
0.00393131
0.00446323
0.00484218
0.0050202
0.00500808
0.00486408
0.00465887
0.00444779
0.00426274
0.00411588
0.00400714
0.0039273
0.00386311
0.0038022
0.00373579
0.00365927
0.00357145
0.0034737
0.00336888
0.00326027
0.00315064
0.00304181
0.00293463
0.00282904
0.0027244
0.00261973
0.00251409
0.00240667
0.00229697
0.00218466
0.00206961
0.00195167
0.00183074
0.00170652
0.00157863
0.00144647
0.00130945
0.00116676
0.00101761
0.000860894
0.000695622
0.000520328
0.000333576
0.000133308
-8.28313e-05
-0.000317733
-0.000575096
-0.000858056
-0.00117052
-0.00151545
-0.00189771
-0.00232177
-0.00279195
-0.003316
-0.00389406
-0.00450919
-0.00513029
-0.00571063
-0.00619271
-0.0065192
-0.00663971
-0.00654127
-0.00628486
-0.0059642
-0.00566436
-0.00541775
-0.0052442
-0.00515401
-0.00512084
-0.0051315
-0.00517741
-0.0052396
-0.00531299
-0.00539709
-0.00548358
-0.00557635
-0.00567395
-0.00577125
-0.00587509
-0.00597981
-0.00608456
-0.00619191
-0.00629933
-0.0064064
-0.00651244
-0.00661495
-0.00671787
-0.0068141
-0.0069039
-0.00699101
-0.00707373
-0.00714552
-0.00721542
-0.00727995
-0.00734008
-0.0073948
-0.00744771
-0.00749117
0.00319436
0.00331066
0.00383497
0.00436034
0.00471344
0.00485138
0.00479608
0.00461965
0.00440003
0.00419129
0.00401949
0.00389225
0.0038047
0.00374355
0.00369348
0.0036421
0.00358188
0.0035098
0.00342612
0.00333333
0.0032348
0.00313367
0.00303216
0.00293143
0.00283173
0.00273264
0.00263338
0.0025331
0.0024311
0.00232686
0.00222009
0.00211058
0.00199825
0.00188293
0.00176444
0.00164244
0.00151656
0.00138618
0.00125076
0.00110948
0.000961634
0.000806124
0.000641968
0.000467773
0.00028207
8.29783e-05
-0.000131865
-0.000365009
-0.000620013
-0.000899761
-0.00120801
-0.00154758
-0.0019228
-0.00233765
-0.00279564
-0.00330221
-0.00385703
-0.00444449
-0.0050354
-0.00558733
-0.00604912
-0.00637037
-0.00650468
-0.00643661
-0.00621443
-0.00592196
-0.0056425
-0.00540916
-0.00524185
-0.0051532
-0.0051202
-0.0051301
-0.00517484
-0.00523604
-0.00530853
-0.00539198
-0.00547814
-0.00557071
-0.00566823
-0.0057655
-0.0058693
-0.00597412
-0.00607897
-0.00618642
-0.00629396
-0.00640116
-0.0065073
-0.00660994
-0.00671298
-0.00680946
-0.00689947
-0.00698687
-0.00706985
-0.00714206
-0.00721226
-0.00727726
-0.00733768
-0.0073929
-0.00744614
-0.00748994
0.0030079
0.00306143
0.00351205
0.00397267
0.00428479
0.00441383
0.00438256
0.004253
0.00408902
0.00393368
0.00380691
0.00371307
0.00364583
0.00359347
0.00354502
0.00349314
0.0034339
0.00336605
0.00329021
0.00320811
0.00312172
0.00303274
0.00294226
0.00285081
0.00275841
0.00266483
0.00256965
0.00247247
0.00237296
0.0022709
0.00216612
0.00205848
0.00194787
0.00183407
0.00171688
0.00159592
0.00147086
0.0013411
0.00120615
0.0010652
0.00091761
0.000762325
0.000598371
0.000424422
0.000239002
4.03835e-05
-0.000173735
-0.000405653
-0.000658708
-0.000935576
-0.00123982
-0.00157404
-0.00194211
-0.00234744
-0.00279291
-0.00328197
-0.00381366
-0.00437373
-0.00493512
-0.00545946
-0.00590117
-0.00621671
-0.0063634
-0.00632416
-0.00613601
-0.00587245
-0.00561419
-0.00539532
-0.00523555
-0.00514947
-0.00511714
-0.00512683
-0.00517099
-0.00523149
-0.00530339
-0.00538659
-0.00547257
-0.00556496
-0.00566254
-0.00575986
-0.00586358
-0.00596845
-0.00607336
-0.00618085
-0.00628845
-0.00639576
-0.00650198
-0.00660473
-0.00670786
-0.00680457
-0.0068948
-0.00698249
-0.00706573
-0.00713838
-0.0072089
-0.0072744
-0.00733514
-0.00739087
-0.00744446
-0.00748862
0.0048857
0.00480541
0.00431771
0.00381205
0.00344863
0.00326271