/*--------------------------------*- C++ -*----------------------------------*\
| =========                 |                                                 |
| \\      /  F ield         | OpenFOAM: The Open Source CFD Toolbox           |
|  \\    /   O peration     | Version:  2312                                  |
|   \\  /    A nd           | Website:  www.openfoam.com                      |
|    \\/     M anipulation  |                                                 |
\*---------------------------------------------------------------------------*/
FoamFile
{
    version     2.0;
    format      ascii;
    arch        "LSB;label=32;scalar=64";
    class       surfaceScalarField;
    location    "0.8";
    object      phi;
}
// * * * * * * * * * * * * * * * * * * * * * * * * * * * * * * * * * * * * * //

dimensions      [0 3 -1 0 0 0 0];

oriented        oriented;

internalField   nonuniform List<scalar> 
11020
(
3.87757e-06
-6.64191e-08
3.87749e-06
5.15015e-08
3.87755e-06
-4.35613e-08
3.8776e-06
3.73318e-08
3.87752e-06
-3.15284e-08
3.8777e-06
2.43656e-08
3.87723e-06
-2.02412e-08
3.87755e-06
1.68346e-08
3.87687e-06
-1.29125e-08
3.87706e-06
1.15721e-08
3.87616e-06
-6.81778e-09
3.87626e-06
8.95895e-09
3.87536e-06
-3.56106e-09
3.87535e-06
6.54015e-09
3.87448e-06
-1.56385e-09
3.87434e-06
4.96192e-09
3.87354e-06
-3.57989e-10
3.87328e-06
4.30581e-09
3.87255e-06
5.12683e-10
3.87221e-06
3.90537e-09
3.87149e-06
1.03076e-09
3.87106e-06
3.60216e-09
3.87032e-06
1.49984e-09
3.86977e-06
3.51811e-09
3.86899e-06
2.07305e-09
3.86834e-06
3.60139e-09
3.86751e-06
2.57767e-09
3.86677e-06
3.68984e-09
3.86589e-06
2.95305e-09
3.86502e-06
3.78804e-09
3.86397e-06
3.35241e-09
3.86282e-06
4.16549e-09
3.86143e-06
4.21075e-09
3.85986e-06
5.29478e-09
3.85806e-06
5.80546e-09
3.85609e-06
6.97775e-09
3.85389e-06
7.6474e-09
3.85147e-06
8.94898e-09
3.84875e-06
1.01147e-08
1.18926e-08
3.84577e-06
4.18301e-06
-6.35707e-08
4.18768e-06
4.68367e-08
4.18397e-06
-3.98531e-08
4.18801e-06
3.32933e-08
4.18449e-06
-2.80074e-08
4.18792e-06
2.0928e-08
4.18456e-06
-1.68777e-08
4.18765e-06
1.37401e-08
4.18461e-06
-9.87328e-09
4.18691e-06
9.27789e-09
4.18405e-06
-3.95588e-09
4.18582e-06
7.18818e-09
4.18342e-06
-1.16509e-09
4.18462e-06
5.34452e-09
4.18264e-06
4.14133e-10
4.18337e-06
4.2266e-09
4.18175e-06
1.26572e-09
4.18214e-06
3.92052e-09
4.18082e-06
1.82932e-09
4.18093e-06
3.79871e-09
4.17969e-06
2.26806e-09
4.17956e-06
3.73285e-09
4.17838e-06
2.67553e-09
4.17806e-06
3.83943e-09
4.17695e-06
3.18288e-09
4.17646e-06
4.09197e-09
4.17537e-06
3.67336e-09
4.17469e-06
4.368e-09
4.1735e-06
4.13598e-09
4.17254e-06
4.74797e-09
4.17112e-06
4.77623e-09
4.16978e-06
5.50377e-09
4.16812e-06
5.8705e-09
4.16667e-06
6.74708e-09
4.16515e-06
7.32447e-09
4.16389e-06
8.23742e-09
4.16264e-06
8.89755e-09
4.16174e-06
9.85062e-09
4.16116e-06
1.06983e-08
1.17698e-08
4.16128e-06
4.51655e-06
-6.00569e-08
4.52071e-06
4.26716e-08
4.51691e-06
-3.60513e-08
4.52048e-06
2.97225e-08
4.51701e-06
-2.45338e-08
4.51982e-06
1.81161e-08
4.51677e-06
-1.38317e-08
4.51931e-06
1.12017e-08
4.51676e-06
-7.3177e-09
4.51852e-06
7.51925e-09
4.51615e-06
-1.58774e-09
4.5174e-06
5.9409e-09
4.51546e-06
7.71914e-10
4.5162e-06
4.60629e-09
4.51456e-06
2.04622e-09
4.51493e-06
3.86202e-09
4.51353e-06
2.66504e-09
4.51363e-06
3.82264e-09
4.51245e-06
3.01078e-09
4.51235e-06
3.89561e-09
4.51125e-06
3.36737e-09
4.51094e-06
4.03834e-09
4.50985e-06
3.7711e-09
4.50937e-06
4.32075e-09
4.50829e-06
4.25706e-09
4.50766e-06
4.7207e-09
4.50658e-06
4.75597e-09
4.50583e-06
5.12266e-09
4.50469e-06
5.2707e-09
4.50364e-06
5.80149e-09
4.50218e-06
6.23438e-09
4.50075e-06
6.93805e-09
4.49909e-06
7.52532e-09
4.49765e-06
8.19329e-09
4.49623e-06
8.73876e-09
4.49508e-06
9.38989e-09
4.49398e-06
9.99675e-09
4.49315e-06
1.06822e-08
4.49256e-06
1.12887e-08
1.18625e-08
4.49247e-06
4.87784e-06
-5.69514e-08
4.88102e-06
3.94964e-08
4.87763e-06
-3.26629e-08
4.88065e-06
2.67034e-08
4.87748e-06
-2.13642e-08
4.87972e-06
1.58702e-08
4.8769e-06
-1.10065e-08
4.87888e-06
9.22377e-09
4.8766e-06
-5.04077e-09
4.87797e-06
6.14614e-09
4.87608e-06
3.0514e-10
4.87686e-06
5.16193e-09
4.8754e-06
2.23584e-09
4.87556e-06
4.44347e-09
4.87453e-06
3.07372e-09
4.87428e-06
4.11451e-09
4.87341e-06
3.53131e-09
4.87296e-06
4.2753e-09
4.87208e-06
3.89123e-09
4.87152e-06
4.45794e-09
4.87064e-06
4.24793e-09
4.86996e-06
4.71818e-09
4.86904e-06
4.68551e-09
4.86825e-06
5.11215e-09
4.86729e-06
5.21758e-09
4.86637e-06
5.63604e-09
4.86525e-06
5.8762e-09
4.86405e-06
6.32492e-09
4.86266e-06
6.66262e-09
4.86131e-06
7.14992e-09
4.85992e-06
7.627e-09
4.85859e-06
8.26603e-09
4.8573e-06
8.81817e-09
4.8561e-06
9.39517e-09
4.85499e-06
9.84707e-09
4.85406e-06
1.03172e-08
4.85334e-06
1.07179e-08
4.8529e-06
1.11218e-08
4.85276e-06
1.14277e-08
1.16539e-08
4.85297e-06
5.26759e-06
-5.38967e-08
5.2706e-06
3.64894e-08
5.26711e-06
-2.91748e-08
5.27022e-06
2.35929e-08
5.26707e-06
-1.82141e-08
5.2693e-06
1.36396e-08
5.26634e-06
-8.04918e-09
5.26814e-06
7.42452e-09
5.26574e-06
-2.63198e-09
5.26705e-06
4.83137e-09
5.26527e-06
2.08309e-09
5.26603e-06
4.40183e-09
5.26467e-06
3.59311e-09
5.26472e-06
4.40076e-09
5.2638e-06
3.98799e-09
5.26335e-06
4.57221e-09
5.2624e-06
4.47768e-09
5.26184e-06
4.83441e-09
5.26093e-06
4.80103e-09
5.26031e-06
5.07554e-09
5.2594e-06
5.15775e-09
5.25867e-06
5.45593e-09
5.2577e-06
5.65459e-09
5.25681e-06
5.99403e-09
5.25576e-06
6.26983e-09
5.25478e-06
6.62096e-09
5.2537e-06
6.95641e-09
5.2526e-06
7.41716e-09
5.25129e-06
7.9724e-09
5.24983e-06
8.61934e-09
5.24824e-06
9.21107e-09
5.24675e-06
9.75378e-09
5.24541e-06
1.01626e-08
5.24427e-06
1.05296e-08
5.2433e-06
1.08171e-08
5.24252e-06
1.10993e-08
5.24191e-06
1.13277e-08
5.24153e-06
1.15039e-08
5.24138e-06
1.15751e-08
1.15796e-08
5.24146e-06
5.68828e-06
-5.07152e-08
5.69143e-06
3.33405e-08
5.68768e-06
-2.54265e-08
5.69087e-06
2.03984e-08
5.6878e-06
-1.51437e-08
5.69004e-06
1.1401e-08
5.68709e-06
-5.09711e-09
5.68864e-06
5.87272e-09
5.6863e-06
-2.92734e-10
5.68723e-06
3.89928e-09
5.68589e-06
3.42686e-09
5.68623e-06
4.0586e-09
5.68553e-06
4.29387e-09
5.68515e-06
4.78045e-09
5.6843e-06
4.83773e-09
5.68365e-06
5.2259e-09
5.68271e-06
5.41756e-09
5.68199e-06
5.54901e-09
5.68109e-06
5.70312e-09
5.68035e-06
5.81812e-09
5.67946e-06
6.04648e-09
5.67864e-06
6.27681e-09
5.67768e-06
6.6147e-09
5.67673e-06
6.94661e-09
5.67563e-06
7.37256e-09
5.67441e-06
7.8374e-09
5.67302e-06
8.3448e-09
5.67155e-06
8.89134e-09
5.67012e-06
9.39904e-09
5.66876e-06
9.98149e-09
5.66744e-06
1.05262e-08
5.6662e-06
1.09973e-08
5.66502e-06
1.1346e-08
5.66394e-06
1.1602e-08
5.66301e-06
1.17483e-08
5.66227e-06
1.18458e-08
5.66174e-06
1.18512e-08
5.66146e-06
1.17807e-08
5.66143e-06
1.16139e-08
1.13674e-08
5.66164e-06
6.1425e-06
-4.73416e-08
6.1459e-06
2.99416e-08
6.14189e-06
-2.14251e-08
6.14509e-06
1.71987e-08
6.14201e-06
-1.20643e-08
6.14434e-06
9.0779e-09
6.14138e-06
-2.13967e-09
6.14283e-06
4.41899e-09
6.14051e-06
2.03424e-09
6.14118e-06
3.22527e-09
6.14004e-06
4.56579e-09
6.14013e-06
3.97276e-09
6.13949e-06
4.93398e-09
6.13909e-06
5.17336e-09
6.13824e-06
5.69554e-09
6.13757e-06
5.89199e-09
6.13659e-06
6.39699e-09
6.13583e-06
6.30919e-09
6.13484e-06
6.69243e-09
6.13402e-06
6.63502e-09
6.13307e-06
7.0045e-09
6.1322e-06
7.1449e-09
6.13118e-06
7.63595e-09
6.13017e-06
7.9511e-09
6.12906e-06
8.48132e-09
6.12798e-06
8.91977e-09
6.12676e-06
9.56872e-09
6.12538e-06
1.02731e-08
6.12376e-06
1.10124e-08
6.12218e-06
1.15686e-08
6.12072e-06
1.19804e-08
6.11948e-06
1.22386e-08
6.11837e-06
1.24591e-08
6.11735e-06
1.26192e-08
6.11644e-06
1.26573e-08
6.1157e-06
1.25857e-08
6.11515e-06
1.24069e-08
6.11481e-06
1.21132e-08
6.11471e-06
1.17129e-08
1.11181e-08
6.11496e-06
6.63299e-06
-4.37706e-08
6.6366e-06
2.63293e-08
6.63252e-06
-1.73389e-08
6.63559e-06
1.41261e-08
6.6325e-06
-8.97793e-09
6.63473e-06
6.85348e-09
6.63204e-06
5.4549e-10
6.63316e-06
3.3015e-09
6.63125e-06
3.93928e-09
6.63138e-06
3.10453e-09
6.63065e-06
5.28653e-09
6.63045e-06
4.18064e-09
6.62957e-06
5.81292e-09
6.62922e-06
5.52377e-09
6.6283e-06
6.60905e-09
6.62773e-06
6.462e-09
6.62669e-06
7.44453e-09
6.62598e-06
7.01543e-09
6.62487e-06
7.80503e-09
6.62403e-06
7.46994e-09
6.62293e-06
8.11062e-09
6.62204e-06
8.03281e-09
6.62091e-06
8.7604e-09
6.61993e-06
8.93208e-09
6.6187e-06
9.71427e-09
6.61737e-06
1.02475e-08
6.61577e-06
1.1175e-08
6.61428e-06
1.17607e-08
6.61282e-06
1.24721e-08
6.61157e-06
1.28156e-08
6.61034e-06
1.32075e-08
6.60921e-06
1.33734e-08
6.60809e-06
1.3578e-08
6.60712e-06
1.35901e-08
6.60621e-06
1.35716e-08
6.60546e-06
1.33347e-08
6.60484e-06
1.30284e-08
6.60441e-06
1.2537e-08
6.604e-06
1.21286e-08
1.1354e-08
6.60376e-06
7.16267e-06
-4.00067e-08
7.16644e-06
2.25564e-08
7.16234e-06
-1.3236e-08
7.16533e-06
1.11314e-08
7.16217e-06
-5.81249e-09
7.16425e-06
4.76734e-09
7.16182e-06
2.97516e-09
7.16263e-06
2.4909e-09
7.16125e-06
5.32572e-09
7.16092e-06
3.43333e-09
7.16026e-06
5.93927e-09
7.15987e-06
4.57613e-09
7.15898e-06
6.70616e-09
7.15848e-06
6.02351e-09
7.15757e-06
7.51562e-09
7.15695e-06
7.084e-09
7.15595e-06
8.4389e-09
7.15519e-06
7.7795e-09
7.1541e-06
8.89775e-09
7.15318e-06
8.38666e-09
7.15203e-06
9.25772e-09
7.15099e-06
9.0712e-09
7.14972e-06
1.00393e-08
7.14844e-06
1.0212e-08
7.14687e-06
1.12776e-08
7.14541e-06
1.17141e-08
7.14397e-06
1.26113e-08
7.14277e-06
1.29592e-08
7.14164e-06
1.36023e-08
7.14058e-06
1.38758e-08
7.13945e-06
1.43368e-08
7.13834e-06
1.44853e-08
7.13715e-06
1.47681e-08
7.13598e-06
1.47579e-08
7.13479e-06
1.4758e-08
7.13366e-06
1.44656e-08
7.13257e-06
1.41247e-08
7.13168e-06
1.342e-08
7.13154e-06
1.22704e-08
1.06921e-08
7.1322e-06
7.7347e-06
-3.60979e-08
7.73854e-06
1.87147e-08
7.73451e-06
-9.20857e-09
7.7373e-06
8.34024e-09
7.73431e-06
-2.82315e-09
7.73587e-06
3.20822e-09
7.73426e-06
4.58365e-09
7.73381e-06
2.94226e-09
7.7336e-06
5.53346e-09
7.73282e-06
4.2132e-09
7.73232e-06
6.44663e-09
7.73147e-06
5.42543e-09
7.73083e-06
7.33782e-09
7.72995e-06
6.9038e-09
7.72926e-06
8.20884e-09
7.72833e-06
8.01269e-09
7.72757e-06
9.20057e-09
7.72655e-06
8.80441e-09
7.72564e-06
9.79921e-09
7.7245e-06
9.53439e-09
7.72346e-06
1.02983e-08
7.72218e-06
1.03474e-08
7.7209e-06
1.13195e-08
7.71933e-06
1.17785e-08
7.71784e-06
1.27752e-08
7.71631e-06
1.3243e-08
7.71501e-06
1.39098e-08
7.71377e-06
1.41975e-08
7.71274e-06
1.46312e-08
7.71186e-06
1.47541e-08
7.71126e-06
1.49345e-08
7.71099e-06
1.47624e-08
7.71111e-06
1.46469e-08
7.71154e-06
1.4322e-08
7.71228e-06
1.4026e-08
7.71315e-06
1.35954e-08
7.7141e-06
1.31678e-08
7.71493e-06
1.25948e-08
7.71509e-06
1.21125e-08
1.12274e-08
7.71455e-06
8.35245e-06
-3.20898e-08
8.3563e-06
1.48655e-08
8.35237e-06
-5.28011e-09
8.35492e-06
5.79456e-09
8.35223e-06
-1.3174e-10
8.35318e-06
2.25922e-09
8.35263e-06
5.12931e-09
8.35139e-06
4.18483e-09
8.35121e-06
5.71299e-09
8.35026e-06
5.16165e-09
8.34986e-06
6.84524e-09
8.34883e-06
6.46048e-09
8.34827e-06
7.8899e-09
8.34722e-06
7.96029e-09
8.34656e-06
8.86809e-09
8.34548e-06
9.094e-09
8.34476e-06
9.91483e-09
8.34362e-06
9.94467e-09
8.34274e-06
1.06863e-08
8.34144e-06
1.08327e-08
8.34028e-06
1.14542e-08
8.3387e-06
1.19294e-08
8.33724e-06
1.27763e-08
8.33561e-06
1.34086e-08
8.33431e-06
1.40728e-08
8.33302e-06
1.45365e-08
8.33196e-06
1.49666e-08
8.33094e-06
1.52176e-08
8.33015e-06
1.54292e-08
8.3295e-06
1.54047e-08
8.32922e-06
1.52069e-08
8.32912e-06
1.48628e-08
8.32928e-06
1.44943e-08
8.32944e-06
1.41534e-08
8.32973e-06
1.37447e-08
8.33004e-06
1.32829e-08
8.33043e-06
1.278e-08
8.33083e-06
1.21954e-08
8.33139e-06
1.15436e-08
1.07347e-08
8.33189e-06
9.01961e-06
-2.80502e-08
9.02337e-06
1.10994e-08
9.01968e-06
-1.58813e-09
9.02169e-06
3.78768e-09
9.01968e-06
1.88037e-09
9.01935e-06
2.58941e-09
9.01953e-06
4.94166e-09
9.01877e-06
4.95197e-09
9.01823e-06
6.24511e-09
9.01724e-06
6.15978e-09
9.01666e-06
7.41739e-09
9.01569e-06
7.4357e-09
9.01497e-06
8.60719e-09
9.01397e-06
8.96668e-09
9.01313e-06
9.69942e-09
9.01209e-06
1.0134e-08
9.01121e-06
1.07993e-08
9.0101e-06
1.10528e-08
9.00907e-06
1.17136e-08
9.00782e-06
1.20886e-08
9.00644e-06
1.28302e-08
9.00483e-06
1.35422e-08
9.0033e-06
1.43039e-08
9.00183e-06
1.48784e-08
9.00054e-06
1.53626e-08
8.99937e-06
1.57107e-08
8.9984e-06
1.59311e-08
8.99764e-06
1.5984e-08
8.99727e-06
1.57956e-08
8.9971e-06
1.55801e-08
8.99703e-06
1.52703e-08
8.99698e-06
1.49183e-08
8.99694e-06
1.45306e-08
8.99693e-06
1.41646e-08
8.99697e-06
1.37011e-08
8.99709e-06
1.31652e-08
8.99724e-06
1.26297e-08
8.99737e-06
1.20628e-08
8.99744e-06
1.14735e-08
1.09348e-08
8.99724e-06
9.74009e-06
-2.40425e-08
9.74367e-06
7.52668e-09
9.74045e-06
1.63101e-09
9.74172e-06
2.51968e-09
9.74083e-06
2.7696e-09
9.73974e-06
3.67704e-09
9.73957e-06
5.10831e-09
9.73892e-06
5.60125e-09
9.73842e-06
6.74638e-09
9.73746e-06
7.1268e-09
9.73676e-06
8.11367e-09
9.73578e-06
8.41624e-09
9.73496e-06
9.43038e-09
9.73395e-06
9.97147e-09
9.73301e-06
1.06406e-08
9.73197e-06
1.11782e-08
9.73094e-06
1.18275e-08
9.72973e-06
1.22595e-08
9.72841e-06
1.30307e-08
9.72684e-06
1.36589e-08
9.72529e-06
1.43872e-08
9.72382e-06
1.50097e-08
9.72259e-06
1.55288e-08
9.72155e-06
1.59209e-08
9.72077e-06
1.61412e-08
9.72019e-06
1.62901e-08
9.71982e-06
1.63079e-08
9.71949e-06
1.6312e-08
9.719e-06
1.62791e-08
9.7185e-06
1.60814e-08
9.71803e-06
1.57453e-08
9.7176e-06
1.5342e-08
9.71728e-06
1.48517e-08
9.71717e-06
1.42823e-08
9.71712e-06
1.37418e-08
9.71709e-06
1.32042e-08
9.71707e-06
1.26426e-08
9.71706e-06
1.20728e-08
9.71702e-06
1.15184e-08
1.09394e-08
9.71701e-06
1.05182e-05
-2.01739e-08
1.05214e-05
4.2967e-09
1.05197e-05
3.32986e-09
1.05194e-05
2.84027e-09
1.05188e-05
3.40583e-09
1.05177e-05
4.78373e-09
1.05171e-05
5.66694e-09
1.05164e-05
6.2909e-09
1.0516e-05
7.1443e-09
1.05152e-05
7.94634e-09
1.05144e-05
8.9286e-09
1.05134e-05
9.40931e-09
1.05125e-05
1.03657e-08
1.05114e-05
1.09927e-08
1.05104e-05
1.16787e-08
1.05093e-05
1.22762e-08
1.05082e-05
1.29885e-08
1.05068e-05
1.361e-08
1.05054e-05
1.44718e-08
1.05038e-05
1.52135e-08
1.05024e-05
1.58188e-08
1.0501e-05
1.63402e-08
1.04998e-05
1.67223e-08
1.04987e-05
1.71165e-08
1.04975e-05
1.7294e-08
1.04964e-05
1.74088e-08
1.04954e-05
1.7286e-08
1.04947e-05
1.70324e-08
1.04944e-05
1.65213e-08
1.04944e-05
1.60885e-08
1.04946e-05
1.56118e-08
1.04947e-05
1.51769e-08
1.04949e-05
1.47214e-08
1.04949e-05
1.4288e-08
1.04948e-05
1.38024e-08
1.04947e-05
1.32586e-08
1.04947e-05
1.26777e-08
1.04947e-05
1.20883e-08
1.04947e-05
1.14884e-08
1.09063e-08
1.04948e-05
1.13585e-05
-1.64987e-08
1.13613e-05
1.49082e-09
1.13603e-05
4.33699e-09
1.13594e-05
3.73454e-09
1.13587e-05
4.08807e-09
1.1358e-05
5.49432e-09
1.13574e-05
6.29026e-09
1.13566e-05
7.11707e-09
1.13559e-05
7.83163e-09
1.1355e-05
8.78646e-09
1.13542e-05
9.80779e-09
1.13532e-05
1.03999e-08
1.13521e-05
1.13893e-08
1.13511e-05
1.20648e-08
1.13499e-05
1.28305e-08
1.13487e-05
1.35064e-08
1.13473e-05
1.43842e-08
1.13458e-05
1.5135e-08
1.13443e-05
1.5962e-08
1.13429e-05
1.65955e-08
1.13416e-05
1.7081e-08
1.13404e-05
1.75249e-08
1.13394e-05
1.77652e-08
1.13385e-05
1.79803e-08
1.13379e-05
1.79597e-08
1.13374e-05
1.78427e-08
1.13371e-05
1.75993e-08
1.13368e-05
1.73247e-08
1.13364e-05
1.69196e-08
1.1336e-05
1.65291e-08
1.13356e-05
1.60326e-08
1.13352e-05
1.55085e-08
1.1335e-05
1.4957e-08
1.13349e-05
1.44159e-08
1.13348e-05
1.38486e-08
1.13348e-05
1.32712e-08
1.13348e-05
1.2669e-08
1.13349e-05
1.20601e-08
1.13349e-05
1.14446e-08
1.08061e-08
1.1335e-05
1.22659e-05
-1.31056e-08
1.22682e-05
-8.01446e-10
1.22677e-05
4.91587e-09
1.22667e-05
4.73932e-09
1.22658e-05
4.92531e-09
1.22651e-05
6.19376e-09
1.22645e-05
6.93769e-09
1.22636e-05
7.93619e-09
1.22629e-05
8.63004e-09
1.2262e-05
9.68276e-09
1.2261e-05
1.07486e-08
1.226e-05
1.14135e-08
1.22589e-05
1.24926e-08
1.22577e-05
1.32299e-08
1.22564e-05
1.41175e-08
1.2255e-05
1.49409e-08
1.22535e-05
1.58998e-08
1.2252e-05
1.66551e-08
1.22506e-05
1.73306e-08
1.22494e-05
1.78346e-08
1.22483e-05
1.81276e-08
1.22474e-05
1.84187e-08
1.22467e-05
1.85131e-08
1.22461e-05
1.85993e-08
1.22455e-05
1.84844e-08
1.22449e-05
1.84398e-08
1.22444e-05
1.81463e-08
1.22439e-05
1.78222e-08
1.22434e-05
1.73727e-08
1.22431e-05
1.68958e-08
1.22428e-05
1.6334e-08
1.22425e-05
1.57306e-08
1.22424e-05
1.51173e-08
1.22423e-05
1.45224e-08
1.22422e-05
1.39058e-08
1.22422e-05
1.32874e-08
1.22422e-05
1.26563e-08
1.22423e-05
1.20272e-08
1.22423e-05
1.13981e-08
1.07646e-08
1.22423e-05
1.32459e-05
-1.00543e-08
1.32476e-05
-2.5137e-09
1.32474e-05
5.14799e-09
1.32464e-05
5.68754e-09
1.32455e-05
5.86959e-09
1.32447e-05
6.99064e-09
1.32439e-05
7.66145e-09
1.32431e-05
8.78165e-09
1.32423e-05
9.46783e-09
1.32413e-05
1.05994e-08
1.32403e-05
1.17468e-08
1.32393e-05
1.24866e-08
1.32381e-05
1.36597e-08
1.32368e-05
1.45094e-08
1.32353e-05
1.56082e-08
1.32338e-05
1.65138e-08
1.32323e-05
1.73929e-08
1.32309e-05
1.79808e-08
1.32298e-05
1.85193e-08
1.32286e-05
1.90052e-08
1.32275e-05
1.92574e-08
1.32264e-05
1.95255e-08
1.32253e-05
1.95788e-08
1.32243e-05
1.95825e-08
1.32235e-05
1.92888e-08
1.3223e-05
1.88882e-08
1.32228e-05
1.84152e-08
1.32226e-05
1.79558e-08
1.32226e-05
1.74275e-08
1.32226e-05
1.69232e-08
1.32225e-05
1.63724e-08
1.32224e-05
1.58466e-08
1.32223e-05
1.52331e-08
1.32222e-05
1.4601e-08
1.32222e-05
1.39435e-08
1.32222e-05
1.32869e-08
1.32222e-05
1.26267e-08
1.32223e-05
1.19766e-08
1.32223e-05
1.13348e-08
1.06784e-08
1.32224e-05
1.43041e-05
-7.43655e-09
1.4305e-05
-3.42395e-09
1.43052e-05
4.982e-09
1.43044e-05
6.46455e-09
1.43034e-05
6.88929e-09
1.43025e-05
7.88239e-09
1.43017e-05
8.49279e-09
1.43008e-05
9.67971e-09
1.42999e-05
1.03424e-08
1.4299e-05
1.15263e-08
1.4298e-05
1.27636e-08
1.42968e-05
1.36242e-08
1.42954e-05
1.50414e-08
1.42939e-05
1.60468e-08
1.42923e-05
1.72138e-08
1.42908e-05
1.80171e-08
1.42895e-05
1.87077e-08
1.42883e-05
1.91995e-08
1.42872e-05
1.9606e-08
1.42863e-05
1.99135e-08
1.42855e-05
1.99884e-08
1.4285e-05
2.00766e-08
1.42846e-05
1.99841e-08
1.42842e-05
1.99217e-08
1.42838e-05
1.97722e-08
1.42831e-05
1.95368e-08
1.42824e-05
1.90874e-08
1.42818e-05
1.85712e-08
1.42813e-05
1.79347e-08
1.42809e-05
1.72931e-08
1.42807e-05
1.66107e-08
1.42806e-05
1.5928e-08
1.42806e-05
1.52605e-08
1.42806e-05
1.4598e-08
1.42806e-05
1.39287e-08
1.42806e-05
1.325e-08
1.42807e-05
1.25693e-08
1.42808e-05
1.18943e-08
1.42809e-05
1.12374e-08
1.05776e-08
1.4281e-05
1.54469e-05
-5.29112e-09
1.54463e-05
-2.88843e-09
1.54473e-05
4.04415e-09
1.54469e-05
6.81881e-09
1.54459e-05
7.92154e-09
1.54449e-05
8.89947e-09
1.54439e-05
9.47498e-09
1.54429e-05
1.06631e-08
1.54419e-05
1.13074e-08
1.54408e-05
1.26358e-08
1.54395e-05
1.40903e-08
1.5438e-05
1.51109e-08
1.54365e-05
1.65377e-08
1.54351e-05
1.74249e-08
1.54338e-05
1.84939e-08
1.54327e-05
1.92072e-08
1.54315e-05
1.98503e-08
1.54304e-05
2.02934e-08
1.54294e-05
2.06379e-08
1.54283e-05
2.09518e-08
1.54273e-05
2.10001e-08
1.54264e-05
2.10329e-08
1.54255e-05
2.0851e-08
1.54248e-05
2.06488e-08
1.54243e-05
2.02373e-08
1.54241e-05
1.97403e-08
1.5424e-05
1.91844e-08
1.5424e-05
1.86254e-08
1.54239e-05
1.79947e-08
1.54238e-05
1.73596e-08
1.54238e-05
1.66799e-08
1.54237e-05
1.59938e-08
1.54237e-05
1.5287e-08
1.54237e-05
1.45824e-08
1.54237e-05
1.38728e-08
1.54238e-05
1.31692e-08
1.54239e-05
1.24722e-08
1.5424e-05
1.17885e-08
1.54241e-05
1.11222e-08
1.04609e-08
1.54243e-05
1.66808e-05
-3.6137e-09
1.66797e-05
-1.84498e-09
1.66805e-05
3.24363e-09
1.66804e-05
6.91434e-09
1.66795e-05
8.85774e-09
1.66784e-05
9.99187e-09
1.66773e-05
1.06084e-08
1.6676e-05
1.19667e-08
1.66747e-05
1.262e-08
1.66734e-05
1.39454e-08
1.66721e-05
1.53909e-08
1.66708e-05
1.63734e-08
1.66696e-05
1.77715e-08
1.66683e-05
1.86742e-08
1.66671e-05
1.96808e-08
1.6666e-05
2.03641e-08
1.66649e-05
2.09539e-08
1.66638e-05
2.13686e-08
1.66628e-05
2.16464e-08
1.66619e-05
2.1843e-08
1.66611e-05
2.17547e-08
1.66605e-05
2.16588e-08
1.666e-05
2.1372e-08
1.66596e-05
2.10674e-08
1.66592e-05
2.06041e-08
1.66588e-05
2.01442e-08
1.66585e-05
1.94975e-08
1.66583e-05
1.88297e-08
1.66582e-05
1.81139e-08
1.66581e-05
1.74095e-08
1.66581e-05
1.66858e-08
1.66581e-05
1.59713e-08
1.66582e-05
1.52435e-08
1.66582e-05
1.45158e-08
1.66583e-05
1.37833e-08
1.66584e-05
1.30578e-08
1.66586e-05
1.23485e-08
1.66587e-05
1.16587e-08
1.66588e-05
1.09947e-08
1.03149e-08
1.6659e-05
1.8013e-05
-2.23963e-09
1.8012e-05
-8.67673e-10
1.8012e-05
3.25448e-09
1.80122e-05
6.75749e-09
1.80116e-05
9.47623e-09
1.80105e-05
1.1045e-08
1.80093e-05
1.18168e-08
1.80079e-05
1.3353e-08
1.80065e-05
1.40018e-08
1.80052e-05
1.52864e-08
1.80039e-05
1.67114e-08
1.80026e-05
1.76527e-08
1.80014e-05
1.89793e-08
1.80002e-05
1.98705e-08
1.79991e-05
2.08312e-08
1.7998e-05
2.14649e-08
1.79969e-05
2.20101e-08
1.79959e-05
2.23494e-08
1.7995e-05
2.25665e-08
1.79941e-05
2.26929e-08
1.79933e-05
2.25946e-08
1.79926e-05
2.24116e-08
1.79919e-05
2.20316e-08
1.79914e-05
2.15759e-08
1.79911e-05
2.08921e-08
1.7991e-05
2.0202e-08
1.79911e-05
1.94607e-08
1.79911e-05
1.87557e-08
1.79912e-05
1.80428e-08
1.79913e-05
1.73681e-08
1.79913e-05
1.66418e-08
1.79914e-05
1.59081e-08
1.79915e-05
1.51561e-08
1.79916e-05
1.44072e-08
1.79917e-05
1.36493e-08
1.79918e-05
1.29161e-08
1.7992e-05
1.2197e-08
1.79921e-05
1.15e-08
1.79923e-05
1.08242e-08
1.01567e-08
1.79925e-05
1.94516e-05
-1.16972e-09
1.94506e-05
1.33822e-10
1.94501e-05
3.79509e-09
1.94502e-05
6.62686e-09
1.94499e-05
9.82606e-09
1.94489e-05
1.19577e-08
1.94478e-05
1.29747e-08
1.94464e-05
1.47412e-08
1.94449e-05
1.54482e-08
1.94436e-05
1.66595e-08
1.94422e-05
1.80695e-08
1.94409e-05
1.89411e-08
1.94397e-05
2.01704e-08
1.94386e-05
2.10283e-08
1.94375e-05
2.19455e-08
1.94364e-05
2.24953e-08
1.94354e-05
2.30002e-08
1.94346e-05
2.324e-08
1.94337e-05
2.33853e-08
1.9433e-05
2.33897e-08
1.94325e-05
2.31729e-08
1.9432e-05
2.28342e-08
1.94317e-05
2.2332e-08
1.94315e-05
2.17697e-08
1.94314e-05
2.10698e-08
1.94312e-05
2.03483e-08
1.94311e-05
1.95791e-08
1.9431e-05
1.88225e-08
1.9431e-05
1.8054e-08
1.94311e-05
1.73135e-08
1.94312e-05
1.65524e-08
1.94313e-05
1.57911e-08
1.94314e-05
1.50132e-08
1.94316e-05
1.42489e-08
1.94317e-05
1.34857e-08
1.94319e-05
1.27442e-08
1.94321e-05
1.20172e-08
1.94323e-05
1.13178e-08
1.94325e-05
1.06405e-08
9.97714e-09
1.94326e-05
2.1005e-05
-3.53289e-10
2.10039e-05
1.18243e-09
2.10033e-05
4.40836e-09
2.1003e-05
6.92474e-09
2.10028e-05
1.00971e-08
2.10021e-05
1.26084e-08
2.10011e-05
1.3969e-08
2.09998e-05
1.60456e-08
2.09984e-05
1.6884e-08
2.0997e-05
1.80649e-08
2.09956e-05
1.94448e-08
2.09943e-05
2.02797e-08
2.09931e-05
2.13693e-08
2.0992e-05
2.21206e-08
2.09909e-05
2.29989e-08
2.099e-05
2.34318e-08
2.09891e-05
2.38773e-08
2.09883e-05
2.40099e-08
2.09877e-05
2.40562e-08
2.09871e-05
2.39489e-08
2.09866e-05
2.36442e-08
2.09862e-05
2.32074e-08
2.0986e-05
2.25656e-08
2.09859e-05
2.1877e-08
2.09859e-05
2.10931e-08
2.09859e-05
2.03383e-08
2.09859e-05
1.95571e-08
2.09859e-05
1.87929e-08
2.0986e-05
1.79987e-08
2.09861e-05
1.72259e-08
2.09862e-05
1.64153e-08
2.09864e-05
1.56324e-08
2.09866e-05
1.48362e-08
2.09867e-05
1.40602e-08
2.09869e-05
1.32869e-08
2.09872e-05
1.25412e-08
2.09874e-05
1.18106e-08
2.09876e-05
1.11122e-08
2.09878e-05
1.04361e-08
9.77611e-09
2.0988e-05
2.26823e-05
2.60069e-10
2.26813e-05
2.21539e-09
2.26805e-05
5.13805e-09
2.268e-05
7.48325e-09
2.26796e-05
1.05156e-08
2.26791e-05
1.31153e-08
2.26783e-05
1.47123e-08
2.26772e-05
1.71499e-08
2.26759e-05
1.82117e-08
2.26746e-05
1.93983e-08
2.26731e-05
2.08532e-08
2.26718e-05
2.16559e-08
2.26705e-05
2.25917e-08
2.26695e-05
2.31505e-08
2.26686e-05
2.39566e-08
2.26677e-05
2.42631e-08
2.2667e-05
2.45946e-08
2.26664e-05
2.46406e-08
2.26659e-05
2.45723e-08
2.26655e-05
2.43527e-08
2.26652e-05
2.39213e-08
2.2665e-05
2.33709e-08
2.2665e-05
2.26287e-08
2.2665e-05
2.18836e-08
2.2665e-05
2.10632e-08
2.2665e-05
2.0295e-08
2.26651e-05
1.9493e-08
2.26652e-05
1.8707e-08
2.26653e-05
1.78806e-08
2.26655e-05
1.70657e-08
2.26656e-05
1.62376e-08
2.26658e-05
1.54336e-08
2.2666e-05
1.46201e-08
2.26663e-05
1.38338e-08
2.26665e-05
1.30535e-08
2.26667e-05
1.23057e-08
2.2667e-05
1.15752e-08
2.26672e-05
1.08795e-08
2.26674e-05
1.02071e-08
9.55439e-09
2.26677e-05
2.44934e-05
7.62149e-10
2.44926e-05
3.08809e-09
2.44917e-05
6.0313e-09
2.44909e-05
8.26946e-09
2.44902e-05
1.12101e-08
2.44896e-05
1.37164e-08
2.44891e-05
1.52276e-08
2.44883e-05
1.79304e-08
2.44871e-05
1.93692e-08
2.44859e-05
2.05953e-08
2.44846e-05
2.21798e-08
2.44833e-05
2.29817e-08
2.44821e-05
2.37759e-08
2.44812e-05
2.40738e-08
2.44804e-05
2.47409e-08
2.44797e-05
2.49705e-08
2.44792e-05
2.51376e-08
2.44787e-05
2.5081e-08
2.44784e-05
2.48716e-08
2.44782e-05
2.45649e-08
2.44781e-05
2.39972e-08
2.44781e-05
2.33731e-08
2.44782e-05
2.25852e-08
2.44782e-05
2.18419e-08
2.44783e-05
2.10094e-08
2.44783e-05
2.02149e-08
2.44785e-05
1.9367e-08
2.44786e-05
1.85471e-08
2.44788e-05
1.7689e-08
2.4479e-05
1.68569e-08
2.44793e-05
1.60066e-08
2.44795e-05
1.51779e-08
2.44798e-05
1.43543e-08
2.448e-05
1.35691e-08
2.44803e-05
1.27803e-08
2.44806e-05
1.20338e-08
2.44809e-05
1.13088e-08
2.44811e-05
1.06256e-08
2.44814e-05
9.96234e-09
9.30539e-09
2.44816e-05
2.64492e-05
1.15468e-09
2.64484e-05
3.8623e-09
2.64475e-05
6.94575e-09
2.64466e-05
9.20091e-09
2.64456e-05
1.21274e-08
2.64446e-05
1.47437e-08
2.64437e-05
1.61741e-08
2.64428e-05
1.87477e-08
2.64419e-05
2.03539e-08
2.6441e-05
2.14454e-08
2.64402e-05
2.30084e-08
2.64393e-05
2.38357e-08
2.64384e-05
2.46772e-08
2.64377e-05
2.48466e-08
2.64371e-05
2.53262e-08
2.64366e-05
2.54722e-08
2.64362e-05
2.54565e-08
2.64361e-05
2.52742e-08
2.6436e-05
2.49182e-08
2.6436e-05
2.45307e-08
2.64361e-05
2.39517e-08
2.64361e-05
2.33538e-08
2.64361e-05
2.25514e-08
2.64362e-05
2.17503e-08
2.64364e-05
2.08597e-08
2.64366e-05
2.0022e-08
2.64368e-05
1.91481e-08
2.6437e-05
1.82996e-08
2.64373e-05
1.74207e-08
2.64376e-05
1.65675e-08
2.64379e-05
1.57045e-08
2.64382e-05
1.48721e-08
2.64385e-05
1.40446e-08
2.64388e-05
1.32508e-08
2.64391e-05
1.24726e-08
2.64394e-05
1.17307e-08
2.64397e-05
1.1012e-08
2.644e-05
1.03305e-08
2.64403e-05
9.67605e-09
9.04483e-09
2.64406e-05
2.8561e-05
1.47504e-09
2.85603e-05
4.54761e-09
2.85594e-05
7.81831e-09
2.85584e-05
1.02007e-08
2.85575e-05
1.30313e-08
2.85565e-05
1.5748e-08
2.85555e-05
1.71781e-08
2.85547e-05
1.95557e-08
2.85538e-05
2.12936e-08
2.8553e-05
2.2257e-08
2.85523e-05
2.36914e-08
2.85517e-05
2.44554e-08
2.85511e-05
2.52848e-08
2.85505e-05
2.54413e-08
2.85501e-05
2.57196e-08
2.85497e-05
2.58271e-08
2.85495e-05
2.56976e-08
2.85493e-05
2.54186e-08
2.85493e-05
2.49364e-08
2.85494e-05
2.44357e-08
2.85496e-05
2.37683e-08
2.85499e-05
2.30598e-08
2.85502e-05
2.22235e-08
2.85506e-05
2.14016e-08
2.85509e-05
2.05307e-08
2.85512e-05
1.96897e-08
2.85516e-05
1.88116e-08
2.85519e-05
1.795e-08
2.85523e-05
1.70633e-08
2.85526e-05
1.62e-08
2.8553e-05
1.53336e-08
2.85534e-05
1.44997e-08
2.85537e-05
1.36767e-08
2.85541e-05
1.28898e-08
2.85545e-05
1.21222e-08
2.85548e-05
1.1392e-08
2.85551e-05
1.06864e-08
2.85554e-05
1.00184e-08
2.85557e-05
9.37817e-09
8.78917e-09
2.8556e-05
3.08414e-05
1.73409e-09
3.08408e-05
5.13875e-09
3.084e-05
8.65537e-09
3.0839e-05
1.11758e-08
3.08381e-05
1.39334e-08
3.08372e-05
1.66875e-08
3.08362e-05
1.81455e-08
3.08355e-05
2.0265e-08
3.08347e-05
2.2116e-08
3.0834e-05
2.29814e-08
3.08334e-05
2.42483e-08
3.08329e-05
2.49302e-08
3.08326e-05
2.56419e-08
3.08322e-05
2.57965e-08
3.08321e-05
2.5865e-08
3.0832e-05
2.5876e-08
3.08321e-05
2.56577e-08
3.08322e-05
2.53079e-08
3.08324e-05
2.47427e-08
3.08326e-05
2.41527e-08
3.0833e-05
2.34369e-08
3.08333e-05
2.26916e-08
3.08337e-05
2.18435e-08
3.08341e-05
2.09956e-08
3.08345e-05
2.01099e-08
3.0835e-05
1.9251e-08
3.08354e-05
1.83671e-08
3.08359e-05
1.74981e-08
3.08363e-05
1.66098e-08
3.08368e-05
1.57444e-08
3.08372e-05
1.48809e-08
3.08377e-05
1.40522e-08
3.08381e-05
1.32394e-08
3.08386e-05
1.24654e-08
3.0839e-05
1.17156e-08
3.08393e-05
1.1015e-08
3.08397e-05
1.03273e-08
3.084e-05
9.67659e-09
3.08404e-05
9.0536e-09
8.47845e-09
3.08407e-05
3.33039e-05
1.90821e-09
3.33034e-05
5.69235e-09
3.33026e-05
9.39015e-09
3.33017e-05
1.21344e-08
3.33008e-05
1.47691e-08
3.33e-05
1.75217e-08
3.32991e-05
1.90151e-08
3.32985e-05
2.08845e-08
3.32979e-05
2.27586e-08
3.32972e-05
2.36229e-08
3.32968e-05
2.47033e-08
3.32964e-05
2.53289e-08
3.32961e-05
2.58782e-08
3.32959e-05
2.60262e-08
3.32959e-05
2.59212e-08
3.3296e-05
2.57792e-08
3.32962e-05
2.54302e-08
3.32965e-05
2.4973e-08
3.3297e-05
2.4306e-08
3.32975e-05
2.35993e-08
3.32981e-05
2.2803e-08
3.32989e-05
2.19845e-08
3.32995e-05
2.11789e-08
3.33001e-05
2.03825e-08
3.33007e-05
1.95389e-08
3.33012e-05
1.87211e-08
3.33018e-05
1.78444e-08
3.33023e-05
1.6971e-08
3.33028e-05
1.60824e-08
3.33034e-05
1.52009e-08
3.33039e-05
1.43386e-08
3.33044e-05
1.35229e-08
3.33049e-05
1.27292e-08
3.33054e-05
1.19765e-08
3.33059e-05
1.12486e-08
3.33063e-05
1.05596e-08
3.33068e-05
9.89714e-09
3.33072e-05
9.27174e-09
3.33076e-05
8.67405e-09
8.10192e-09
3.33079e-05
3.5963e-05
2.06979e-09
3.59625e-05
6.1942e-09
3.59618e-05
1.01049e-08
3.59609e-05
1.29792e-08
3.59602e-05
1.55073e-08
3.59595e-05
1.8188e-08
3.59588e-05
1.97613e-08
3.59582e-05
2.14088e-08
3.59578e-05
2.31928e-08
3.59574e-05
2.40669e-08
3.59571e-05
2.49201e-08
3.5957e-05
2.54266e-08
3.59572e-05
2.57539e-08
3.59574e-05
2.58123e-08
3.59578e-05
2.55486e-08
3.59583e-05
2.52327e-08
3.5959e-05
2.47495e-08
3.59597e-05
2.42128e-08
3.59605e-05
2.35343e-08
3.59613e-05
2.28463e-08
3.59619e-05
2.21916e-08
3.59624e-05
2.14917e-08
3.59628e-05
2.07101e-08
3.59633e-05
1.98939e-08
3.59639e-05
1.901e-08
3.59645e-05
1.81073e-08
3.59652e-05
1.71483e-08
3.59659e-05
1.62606e-08
3.59666e-05
1.53989e-08
3.59672e-05
1.46029e-08
3.59677e-05
1.37916e-08
3.59682e-05
1.3013e-08
3.59687e-05
1.22544e-08
3.59691e-05
1.15318e-08
3.59695e-05
1.08336e-08
3.59699e-05
1.01707e-08
3.59703e-05
9.53408e-09
3.59706e-05
8.93138e-09
3.5971e-05
8.35565e-09
7.82068e-09
3.59712e-05
3.88347e-05
1.8316e-09
3.88333e-05
7.55798e-09
3.88333e-05
1.01815e-08
3.88322e-05
1.40669e-08
3.88321e-05
1.55641e-08
3.88313e-05
1.89877e-08
3.88311e-05
1.99667e-08
3.88304e-05
2.21472e-08
3.88303e-05
2.32688e-08
3.88297e-05
2.46664e-08
3.88296e-05
2.49908e-08
3.88293e-05
2.57712e-08
3.88294e-05
2.56755e-08
3.88292e-05
2.59369e-08
3.88294e-05
2.54029e-08
3.88294e-05
2.51806e-08
3.88297e-05
2.44332e-08
3.883e-05
2.39126e-08
3.88306e-05
2.29904e-08
3.88312e-05
2.22253e-08