/*--------------------------------*- C++ -*----------------------------------*\
| =========                 |                                                 |
| \\      /  F ield         | OpenFOAM: The Open Source CFD Toolbox           |
|  \\    /   O peration     | Version:  2312                                  |
|   \\  /    A nd           | Website:  www.openfoam.com                      |
|    \\/     M anipulation  |                                                 |
\*---------------------------------------------------------------------------*/
FoamFile
{
    version     2.0;
    format      ascii;
    arch        "LSB;label=32;scalar=64";
    class       volVectorField;
    location    "0.8";
    object      U;
}
// * * * * * * * * * * * * * * * * * * * * * * * * * * * * * * * * * * * * * //

dimensions      [0 1 -1 0 0 0 0];

internalField   nonuniform List<vector> 
5600
(
(0.971755 -0.000844736 0)
(1.02745 0.000719816 0)
(0.974357 -0.00065701 0)
(1.02494 0.000610328 0)
(0.97692 -0.000557311 0)
(1.02253 0.000468133 0)
(0.979231 -0.00042611 0)
(1.0202 0.000381892 0)
(0.981371 -0.000326349 0)
(1.01798 0.000305838 0)
(0.983244 -0.000216278 0)
(1.01582 0.000274761 0)
(0.984904 -0.00014546 0)
(1.01382 0.000231111 0)
(0.986367 -9.13834e-05 0)
(1.01195 0.000199621 0)
(0.98766 -5.02307e-05 0)
(1.01022 0.000195319 0)
(0.988771 -1.05821e-05 0)
(1.00861 0.000200696 0)
(0.989718 1.93668e-05 0)
(1.00711 0.000207695 0)
(0.990495 5.53617e-05 0)
(1.00571 0.000227674 0)
(0.991103 0.000108713 0)
(1.00438 0.000264353 0)
(0.991559 0.000171244 0)
(1.00314 0.000308794 0)
(0.991872 0.000234991 0)
(1.00195 0.000357007 0)
(0.992039 0.000305982 0)
(1.00079 0.000434453 0)
(0.992056 0.000442116 0)
(0.999649 0.000633269 0)
(0.991964 0.000736645 0)
(0.998585 0.000994527 0)
(0.99183 0.00117074 0)
(0.997605 0.00151675 0)
(0.991721 0.00186524 0)
(0.997069 0.00243239 0)
(0.987366 -0.000863946 0)
(1.01106 0.000708184 0)
(0.989847 -0.000648267 0)
(1.0091 0.000595893 0)
(0.992002 -0.000542671 0)
(1.00732 0.00044819 0)
(0.993652 -0.000395766 0)
(1.00576 0.000355109 0)
(0.995029 -0.000283514 0)
(1.00445 0.000283978 0)
(0.995981 -0.000157517 0)
(1.00322 0.000257377 0)
(0.996688 -8.13503e-05 0)
(1.0022 0.000221616 0)
(0.99715 -2.46445e-05 0)
(1.00133 0.000200961 0)
(0.997444 2.03924e-05 0)
(1.00057 0.00021032 0)
(0.997591 6.46303e-05 0)
(0.999879 0.000230245 0)
(0.997622 0.000105254 0)
(0.999261 0.000255657 0)
(0.997546 0.000154341 0)
(0.998681 0.000298676 0)
(0.997368 0.000227566 0)
(0.998119 0.000363832 0)
(0.997107 0.000316121 0)
(0.997565 0.000443292 0)
(0.99677 0.000417994 0)
(0.997004 0.000546073 0)
(0.996368 0.000557061 0)
(0.996444 0.000715464 0)
(0.995943 0.000805551 0)
(0.995918 0.00105186 0)
(0.995521 0.00125302 0)
(0.995427 0.00158462 0)
(0.995153 0.00187379 0)
(0.995118 0.00231414 0)
(0.995134 0.00278683 0)
(0.995483 0.0034484 0)
(0.996939 -0.000776447 0)
(1.00201 0.000597516 0)
(0.997667 -0.000550676 0)
(1.00139 0.000486447 0)
(0.998334 -0.000440259 0)
(1.00079 0.000345387 0)
(0.998651 -0.000294773 0)
(1.00033 0.00025223 0)
(0.998921 -0.000187293 0)
(1 0.000194678 0)
(0.998962 -6.10859e-05 0)
(0.999619 0.000175378 0)
(0.998913 8.24102e-06 0)
(0.9993 0.000154119 0)
(0.998764 5.87807e-05 0)
(0.998979 0.000145648 0)
(0.998567 9.55367e-05 0)
(0.998656 0.000164878 0)
(0.998325 0.000128199 0)
(0.998314 0.000192842 0)
(0.99805 0.000171612 0)
(0.997967 0.000230692 0)
(0.997738 0.000226119 0)
(0.997599 0.000286539 0)
(0.997381 0.000299878 0)
(0.997204 0.000364459 0)
(0.996989 0.000392208 0)
(0.996784 0.000461722 0)
(0.996565 0.000507201 0)
(0.99634 0.000599259 0)
(0.996117 0.000693611 0)
(0.995889 0.000844419 0)
(0.99568 0.000998785 0)
(0.995463 0.00118959 0)
(0.995263 0.00137915 0)
(0.995066 0.00161152 0)
(0.994926 0.00186157 0)
(0.994853 0.00216194 0)
(0.994936 0.00248001 0)
(0.995257 0.00282591 0)
(0.999562 -0.000768656 0)
(0.999848 0.000586358 0)
(0.999423 -0.000529712 0)
(0.999789 0.000474074 0)
(0.999534 -0.000415583 0)
(0.999592 0.000336274 0)
(0.999401 -0.000266306 0)
(0.999408 0.000238282 0)
(0.999312 -0.000157507 0)
(0.999288 0.000188674 0)
(0.999165 -2.43186e-05 0)
(0.999109 0.000177738 0)
(0.998987 4.40227e-05 0)
(0.9989 0.000165246 0)
(0.998749 9.8717e-05 0)
(0.998634 0.000167576 0)
(0.998483 0.000139594 0)
(0.99835 0.000198216 0)
(0.998191 0.000181232 0)
(0.99804 0.000238929 0)
(0.997883 0.000232381 0)
(0.997714 0.000290779 0)
(0.997547 0.00030091 0)
(0.997355 0.000363876 0)
(0.997175 0.000392927 0)
(0.996965 0.00046455 0)
(0.996773 0.000512789 0)
(0.996551 0.000598646 0)
(0.996353 0.000673531 0)
(0.996135 0.000788072 0)
(0.995948 0.000907916 0)
(0.995743 0.00107644 0)
(0.995561 0.00125218 0)
(0.995364 0.00145797 0)
(0.995202 0.00166673 0)
(0.995057 0.00191386 0)
(0.994986 0.0021804 0)
(0.994993 0.002489 0)
(0.99516 0.00281339 0)
(0.995554 0.00315994 0)
(0.99998 -0.0007012 0)
(0.999567 0.000514814 0)
(0.999643 -0.000452824 0)
(0.999596 0.000394137 0)
(0.999684 -0.000333904 0)
(0.999505 0.000265646 0)
(0.999488 -0.000183752 0)
(0.999336 0.000169401 0)
(0.999301 -8.23818e-05 0)
(0.999196 0.000128592 0)
(0.999135 4.33035e-05 0)
(0.999064 0.000133556 0)
(0.998986 0.000102507 0)
(0.998868 0.000147411 0)
(0.998749 0.000134001 0)
(0.9986 0.000171168 0)
(0.998462 0.00017456 0)
(0.998313 0.000210841 0)
(0.998159 0.000222057 0)
(0.998008 0.000258889 0)
(0.997854 0.000280302 0)
(0.99769 0.000324015 0)
(0.997525 0.00035873 0)
(0.997334 0.000413543 0)
(0.997155 0.000464136 0)
(0.996945 0.000533756 0)
(0.996758 0.000602966 0)
(0.996541 0.00069525 0)
(0.996352 0.000800084 0)
(0.996143 0.000938167 0)
(0.995968 0.00108687 0)
(0.995783 0.00125591 0)
(0.995621 0.00142798 0)
(0.99545 0.00161831 0)
(0.995312 0.00181463 0)
(0.995199 0.00203075 0)
(0.995156 0.00225271 0)
(0.995193 0.00248816 0)
(0.99537 0.00271987 0)
(0.995763 0.00295028 0)
(1.00002 -0.000685717 0)
(0.99956 0.000497805 0)
(0.999669 -0.000420829 0)
(0.999566 0.000367745 0)
(0.999691 -0.000300796 0)
(0.999537 0.000247225 0)
(0.999507 -0.000141168 0)
(0.999364 0.000155486 0)
(0.999292 -3.98537e-05 0)
(0.999182 0.000117052 0)
(0.999118 7.51247e-05 0)
(0.99905 0.000127934 0)
(0.998998 0.000131087 0)
(0.998871 0.000162812 0)
(0.998769 0.0001682 0)
(0.998619 0.000201414 0)
(0.998476 0.000220488 0)
(0.998328 0.00024931 0)
(0.998167 0.000272313 0)
(0.99802 0.00030454 0)
(0.997866 0.000338915 0)
(0.997711 0.000382488 0)
(0.99755 0.000432579 0)
(0.997368 0.00049164 0)
(0.997194 0.000559615 0)
(0.996992 0.000639809 0)
(0.996809 0.000731834 0)
(0.996606 0.000840964 0)
(0.996433 0.000966211 0)
(0.99625 0.00111518 0)
(0.996088 0.00128152 0)
(0.995915 0.00145721 0)
(0.995759 0.00163219 0)
(0.995607 0.00181397 0)
(0.995486 0.00199971 0)
(0.9954 0.00219419 0)
(0.995376 0.00238944 0)
(0.995439 0.0025868 0)
(0.995636 0.00277849 0)
(0.996053 0.00296659 0)
(1.00002 -0.000622716 0)
(0.999572 0.000431158 0)
(0.99969 -0.000343441 0)
(0.999562 0.000295025 0)
(0.99967 -0.000230196 0)
(0.999561 0.000184619 0)
(0.999515 -6.64825e-05 0)
(0.999392 0.000103819 0)
(0.999308 2.80751e-05 0)
(0.999185 8.45777e-05 0)
(0.999122 0.000116294 0)
(0.999037 0.000117118 0)
(0.998992 0.000147484 0)
(0.998869 0.000172388 0)
(0.998773 0.000198586 0)
(0.998638 0.000227153 0)
(0.998498 0.000259801 0)
(0.998356 0.000281577 0)
(0.998193 0.000316704 0)
(0.998045 0.000344147 0)
(0.997888 0.000388762 0)
(0.997737 0.000433218 0)
(0.997579 0.000495598 0)
(0.997407 0.000561359 0)
(0.997239 0.000643894 0)
(0.997055 0.000738015 0)
(0.996883 0.000850166 0)
(0.996701 0.000981817 0)
(0.996537 0.00113169 0)
(0.996374 0.001293 0)
(0.996224 0.00145705 0)
(0.996068 0.00162548 0)
(0.995923 0.00179377 0)
(0.995788 0.00196763 0)
(0.995681 0.00214132 0)
(0.99561 0.00231787 0)
(0.995597 0.00248818 0)
(0.995665 0.00265223 0)
(0.995863 0.00280084 0)
(0.996279 0.00293433 0)
(1.00002 -0.000595262 0)
(0.99958 0.000399275 0)
(0.999709 -0.000297107 0)
(0.999586 0.00025964 0)
(0.999647 -0.000189035 0)
(0.999566 0.000156105 0)
(0.999518 -1.77798e-05 0)
(0.999412 8.90477e-05 0)
(0.999334 7.14534e-05 0)
(0.999207 7.95541e-05 0)
(0.99914 0.000137194 0)
(0.99904 0.000123228 0)
(0.998977 0.000172444 0)
(0.998867 0.000189345 0)
(0.998766 0.000232353 0)
(0.998645 0.000255777 0)
(0.99852 0.000304973 0)
(0.998385 0.000320454 0)
(0.99823 0.00037225 0)
(0.998081 0.000393922 0)
(0.997924 0.000452271 0)
(0.997772 0.000493926 0)
(0.997615 0.000572602 0)
(0.997451 0.000638924 0)
(0.997291 0.000739791 0)
(0.997123 0.00084213 0)
(0.996965 0.000982704 0)
(0.996808 0.00113068 0)
(0.996664 0.00130287 0)
(0.996515 0.00146999 0)
(0.996373 0.00164167 0)
(0.996228 0.00180526 0)
(0.996097 0.00197328 0)
(0.995975 0.00213381 0)
(0.995882 0.00229169 0)
(0.995819 0.00243352 0)
(0.99581 0.00256262 0)
(0.995873 0.00266843 0)
(0.996057 0.00275896 0)
(0.996446 0.0028342 0)
(1.00002 -0.000533451 0)
(0.999587 0.000333589 0)
(0.999717 -0.000223257 0)
(0.999619 0.000198953 0)
(0.999638 -0.000125417 0)
(0.999561 0.000102803 0)
(0.999521 4.1735e-05 0)
(0.999421 5.68795e-05 0)
(0.999356 0.000119271 0)
(0.999235 8.18933e-05 0)
(0.99916 0.000156747 0)
(0.999058 0.000127038 0)
(0.998972 0.000205262 0)
(0.99887 0.000198617 0)
(0.998761 0.000269462 0)
(0.998647 0.000273187 0)
(0.998535 0.000353665 0)
(0.998407 0.000349011 0)
(0.998264 0.000432923 0)
(0.998119 0.000436593 0)
(0.997967 0.000523275 0)
(0.997816 0.000550054 0)
(0.997662 0.000659444 0)
(0.997506 0.00071816 0)
(0.997356 0.000854227 0)
(0.997209 0.000958927 0)
(0.997074 0.00113288 0)
(0.996935 0.00127361 0)
(0.996802 0.00145633 0)
(0.996663 0.00160356 0)
(0.996533 0.00178995 0)
(0.996399 0.00195451 0)
(0.996276 0.00215795 0)
(0.996155 0.00233923 0)
(0.996054 0.00253972 0)
(0.995971 0.00269873 0)
(0.995935 0.00285508 0)
(0.995968 0.00294939 0)
(0.996141 0.00299101 0)
(0.99657 0.00287306 0)
(1.00003 -0.000495429 0)
(0.999595 0.000291465 0)
(0.999725 -0.00017159 0)
(0.999644 0.00015937 0)
(0.999644 -7.47263e-05 0)
(0.999559 7.5538e-05 0)
(0.999528 8.30981e-05 0)
(0.999428 5.13698e-05 0)
(0.999379 0.000133362 0)
(0.999255 9.64791e-05 0)
(0.999181 0.000175489 0)
(0.999075 0.000147587 0)
(0.998983 0.000231724 0)
(0.99888 0.000223207 0)
(0.998771 0.00030097 0)
(0.998652 0.000305122 0)
(0.998554 0.000392873 0)
(0.998426 0.000392088 0)
(0.998296 0.000485156 0)
(0.998155 0.000495741 0)
(0.998016 0.00059017 0)
(0.997865 0.000625492 0)
(0.997725 0.000746466 0)
(0.997575 0.00082421 0)
(0.997446 0.000981518 0)
(0.99731 0.00110019 0)
(0.99719 0.00127122 0)
(0.997057 0.00140027 0)
(0.99694 0.00157295 0)
(0.996818 0.00171456 0)
(0.996718 0.00189724 0)
(0.996619 0.00205472 0)
(0.996538 0.00224323 0)
(0.996447 0.00240016 0)
(0.996364 0.00257323 0)
(0.996277 0.00271147 0)
(0.996207 0.00285451 0)
(0.99611 0.00294226 0)
(0.99593 0.00297928 0)
(0.995514 0.00285789 0)
(1.00003 -0.000434859 0)
(0.999614 0.000228589 0)
(0.999727 -0.000103064 0)
(0.999665 0.000110419 0)
(0.999652 -2.35142e-05 0)
(0.999571 4.4269e-05 0)
(0.999535 0.000105187 0)
(0.999435 8.1476e-05 0)
(0.999393 0.000130498 0)
(0.999276 0.000120365 0)
(0.999199 0.000182379 0)
(0.999094 0.000179969 0)
(0.999001 0.000244294 0)
(0.998899 0.000262224 0)
(0.998789 0.000320295 0)
(0.998668 0.000351528 0)
(0.998575 0.000418776 0)
(0.99845 0.000448768 0)
(0.998325 0.000524297 0)
(0.998192 0.000567799 0)
(0.998064 0.000650196 0)
(0.997921 0.000721924 0)
(0.997798 0.0008372 0)
(0.997664 0.000950996 0)
(0.997549 0.00109633 0)
(0.997421 0.00122951 0)
(0.997309 0.00137574 0)
(0.997188 0.00151216 0)
(0.997086 0.00166221 0)
(0.996979 0.00180659 0)
(0.99689 0.00195552 0)
(0.996789 0.0020867 0)
(0.996695 0.00220788 0)
(0.996586 0.00231065 0)
(0.996492 0.00241215 0)
(0.996399 0.00250681 0)
(0.996316 0.00259821 0)
(0.996199 0.00267069 0)
(0.99601 0.00272857 0)
(0.995633 0.00276999 0)
(1.00003 -0.000389865 0)
(0.999642 0.000182435 0)
(0.99973 -5.36292e-05 0)
(0.999683 7.68575e-05 0)
(0.999657 2.09007e-05 0)
(0.999588 4.04943e-05 0)
(0.99955 0.000102553 0)
(0.999447 0.000103791 0)
(0.999407 0.000143597 0)
(0.999294 0.000146243 0)
(0.999217 0.000197943 0)
(0.999114 0.00020938 0)
(0.999023 0.000267343 0)
(0.998922 0.00029719 0)
(0.998814 0.000350539 0)
(0.998694 0.000393559 0)
(0.998602 0.000455985 0)
(0.998482 0.000501115 0)
(0.998362 0.00057482 0)
(0.998236 0.00063581 0)
(0.998121 0.000723803 0)
(0.997992 0.00082277 0)
(0.997884 0.000946983 0)
(0.997762 0.00107306 0)
(0.997656 0.00120788 0)
(0.997534 0.00134299 0)
(0.997432 0.00148282 0)
(0.99732 0.00162064 0)
(0.997229 0.00175065 0)
(0.997128 0.00186989 0)
(0.997037 0.00197764 0)
(0.99693 0.00207862 0)
(0.996838 0.0021768 0)
(0.996746 0.00227959 0)
(0.996674 0.00238702 0)
(0.996596 0.00249491 0)
(0.996511 0.00259584 0)
(0.996375 0.00268333 0)
(0.996152 0.00275463 0)
(0.995732 0.00280914 0)
(1.00003 -0.000332617 0)
(0.999673 0.000125674 0)
(0.999734 8.64369e-06 0)
(0.999699 4.36963e-05 0)
(0.999668 4.51249e-05 0)
(0.999604 5.94619e-05 0)
(0.999566 9.99058e-05 0)
(0.999462 0.00011568 0)
(0.999423 0.000155542 0)
(0.999312 0.000172908 0)
(0.999237 0.00021605 0)
(0.999135 0.000238357 0)
(0.999048 0.00029182 0)
(0.998948 0.000331576 0)
(0.998842 0.000384136 0)
(0.998726 0.000435705 0)
(0.998636 0.000498947 0)
(0.998521 0.000555342 0)
(0.998405 0.000635356 0)
(0.998289 0.000713008 0)
(0.998189 0.000813839 0)
(0.998076 0.000926402 0)
(0.997979 0.00104816 0)
(0.997864 0.00116799 0)
(0.997769 0.00128745 0)
(0.99766 0.00140877 0)
(0.997568 0.0015298 0)
(0.997455 0.00165325 0)
(0.997354 0.00177275 0)
(0.997242 0.00189137 0)
(0.997152 0.0020035 0)
(0.99706 0.0021134 0)
(0.99699 0.00221825 0)
(0.996917 0.00232161 0)
(0.996855 0.00242008 0)
(0.996778 0.00251359 0)
(0.996685 0.00259878 0)
(0.996537 0.00267539 0)
(0.996303 0.00274345 0)
(0.995881 0.00280499 0)
(1.00003 -0.000284579 0)
(0.999708 8.07399e-05 0)
(0.999742 4.21274e-05 0)
(0.999712 3.90736e-05 0)
(0.999682 5.25015e-05 0)
(0.999621 8.11432e-05 0)
(0.999583 0.000109031 0)
(0.999482 0.000130844 0)
(0.999444 0.00016493 0)
(0.999332 0.000195252 0)
(0.999259 0.000236819 0)
(0.99916 0.000268791 0)
(0.999075 0.000321146 0)
(0.998977 0.000367949 0)
(0.998875 0.000422176 0)
(0.998763 0.000479404 0)
(0.998676 0.000546853 0)
(0.998569 0.000614503 0)
(0.998463 0.000704382 0)
(0.998357 0.000801479 0)
(0.99827 0.000908741 0)
(0.998164 0.00102258 0)
(0.998072 0.00113364 0)
(0.997961 0.0012502 0)
(0.997869 0.00136288 0)
(0.997764 0.00148173 0)
(0.99768 0.00159295 0)
(0.997585 0.0017068 0)
(0.99751 0.00181291 0)
(0.997422 0.0019234 0)
(0.997342 0.00202832 0)
(0.997247 0.00213574 0)
(0.997168 0.00223648 0)
(0.997089 0.00233667 0)
(0.997025 0.00242934 0)
(0.996949 0.00251873 0)
(0.996857 0.00260026 0)
(0.99671 0.0026776 0)
(0.996478 0.00274826 0)
(0.996061 0.0028152 0)
(1.00003 -0.000234579 0)
(0.999742 3.80293e-05 0)
(0.999754 5.91005e-05 0)
(0.999726 5.30785e-05 0)
(0.9997 6.63631e-05 0)
(0.999641 9.9988e-05 0)
(0.999601 0.000124238 0)
(0.9995 0.000149119 0)
(0.999464 0.000177657 0)
(0.999355 0.000214173 0)
(0.999284 0.000259794 0)
(0.999187 0.000296989 0)
(0.999107 0.000352374 0)
(0.999011 0.000403676 0)
(0.998912 0.000463451 0)
(0.998806 0.000526227 0)
(0.998723 0.000602443 0)
(0.998626 0.000682587 0)
(0.998531 0.000781941 0)
(0.998434 0.000885869 0)
(0.998354 0.000989466 0)
(0.998255 0.00109975 0)
(0.998171 0.00120918 0)
(0.998072 0.00132896 0)
(0.997994 0.00144558 0)
(0.997899 0.00156738 0)
(0.997818 0.00167667 0)
(0.997717 0.00178179 0)
(0.99763 0.00187149 0)
(0.997535 0.00195849 0)
(0.997462 0.00203925 0)
(0.997388 0.00212754 0)
(0.997333 0.00221817 0)
(0.997271 0.00231388 0)
(0.997217 0.00240586 0)
(0.997144 0.00249505 0)
(0.997053 0.00257683 0)
(0.996907 0.00265345 0)
(0.996674 0.00272337 0)
(0.996257 0.00278862 0)
(1.00003 -0.000188536 0)
(0.999778 1.70918e-06 0)
(0.999771 7.1101e-05 0)
(0.999741 6.96555e-05 0)
(0.999717 7.84004e-05 0)
(0.99966 0.000109225 0)
(0.999621 0.000133673 0)
(0.999521 0.000165191 0)
(0.999489 0.000195578 0)
(0.999382 0.000238413 0)
(0.999312 0.000286058 0)
(0.999218 0.000328364 0)
(0.999141 0.000387921 0)
(0.999048 0.000443283 0)
(0.998954 0.000509681 0)
(0.998855 0.000579359 0)
(0.998781 0.000666084 0)
(0.998694 0.000757273 0)
(0.998608 0.000858591 0)
(0.998515 0.000960962 0)
(0.998442 0.0010591 0)
(0.998353 0.00116508 0)
(0.998281 0.00126698 0)
(0.998191 0.00137691 0)
(0.998116 0.00147958 0)
(0.99802 0.00158814 0)
(0.997936 0.00168934 0)
(0.997837 0.00179602 0)
(0.997759 0.00189623 0)
(0.997677 0.00199773 0)
(0.997618 0.00209206 0)
(0.997558 0.00218694 0)
(0.997514 0.00227683 0)
(0.997462 0.00236624 0)
(0.997414 0.00245025 0)
(0.997343 0.00253116 0)
(0.997252 0.00260576 0)
(0.997105 0.00267585 0)
(0.996871 0.00274011 0)
(0.996453 0.00279996 0)
(1.00003 -0.000147762 0)
(0.999813 -2.47973e-05 0)
(0.999795 7.6468e-05 0)
(0.999756 8.47226e-05 0)
(0.999735 9.43195e-05 0)
(0.999683 0.00012522 0)
(0.999643 0.000150018 0)
(0.999544 0.000185569 0)
(0.999515 0.000217123 0)
(0.99941 0.000261533 0)
(0.999343 0.000313166 0)
(0.999252 0.000359057 0)
(0.999181 0.000424758 0)
(0.999091 0.00048605 0)
(0.999003 0.000560726 0)
(0.998913 0.000640753 0)
(0.998847 0.000734337 0)
(0.998768 0.000827617 0)
(0.998687 0.000925108 0)
(0.998599 0.00102551 0)
(0.998531 0.00112376 0)
(0.998448 0.00123285 0)
(0.99838 0.00133786 0)
(0.998296 0.0014486 0)
(0.998232 0.00154712 0)
(0.998153 0.00164724 0)
(0.998089 0.00173905 0)
(0.998006 0.0018364 0)
(0.997933 0.00192901 0)
(0.99785 0.00202522 0)
(0.99779 0.00211581 0)
(0.997731 0.00220659 0)
(0.997691 0.00229114 0)
(0.997644 0.00237386 0)
(0.9976 0.00245059 0)
(0.997533 0.00252431 0)
(0.997444 0.00259245 0)
(0.997298 0.00265695 0)
(0.997065 0.00271646 0)
(0.996648 0.00277222 0)
(1.00003 -0.00011037 0)
(0.999846 -4.64449e-05 0)
(0.999821 7.83823e-05 0)
(0.999774 0.000101173 0)
(0.999752 0.000112896 0)
(0.999703 0.000140715 0)
(0.999666 0.000164232 0)
(0.999568 0.000203357 0)
(0.999543 0.000235605 0)
(0.999442 0.000285734 0)
(0.999376 0.000340565 0)
(0.99929 0.00039098 0)
(0.999224 0.00046349 0)
(0.99914 0.000533683 0)
(0.999059 0.000620395 0)
(0.998978 0.000706871 0)
(0.998917 0.000799659 0)
(0.998843 0.000889021 0)
(0.99877 0.000983278 0)
(0.99869 0.00108193 0)
(0.998635 0.00117769 0)
(0.998566 0.00128338 0)
(0.99851 0.001385 0)
(0.998429 0.00149434 0)
(0.998359 0.00159445 0)
(0.998271 0.00169698 0)
(0.998201 0.0017879 0)
(0.998121 0.00187788 0)
(0.998062 0.0019597 0)
(0.997999 0.00204493 0)
(0.997956 0.00212714 0)
(0.997909 0.00221144 0)
(0.997876 0.00229131 0)
(0.997833 0.00236947 0)
(0.997792 0.00244206 0)
(0.997727 0.0025112 0)
(0.99764 0.00257511 0)
(0.997496 0.00263527 0)
(0.997264 0.00269102 0)
(0.996847 0.00274305 0)
(1.00003 -7.93815e-05 0)
(0.999877 -4.87704e-05 0)
(0.999855 6.98623e-05 0)
(0.999793 0.00010992 0)
(0.99977 0.000130179 0)
(0.999725 0.000159039 0)
(0.99969 0.000183582 0)
(0.999593 0.000224083 0)
(0.999572 0.000257615 0)
(0.999475 0.000309689 0)
(0.999412 0.000372479 0)
(0.999332 0.000430897 0)
(0.999274 0.000511925 0)
(0.999199 0.000587998 0)
(0.999124 0.000679123 0)
(0.999047 0.00076444 0)
(0.998989 0.000854681 0)
(0.998922 0.000943965 0)
(0.998857 0.00103765 0)
(0.998782 0.00113659 0)
(0.998732 0.00122999 0)
(0.998667 0.00133042 0)
(0.998618 0.00142499 0)
(0.998549 0.00152712 0)
(0.998497 0.0016235 0)
(0.998425 0.00172528 0)
(0.998365 0.00181887 0)
(0.998287 0.00191267 0)
(0.998227 0.00199793 0)
(0.998165 0.00208243 0)
(0.998126 0.00216119 0)
(0.998086 0.00223939 0)
(0.998059 0.00231318 0)
(0.998022 0.00238486 0)
(0.997983 0.00245182 0)
(0.99792 0.00251527 0)
(0.997835 0.00257416 0)
(0.997692 0.0026292 0)
(0.997461 0.00268034 0)
(0.997045 0.00272775 0)
(1.00003 -5.66879e-05 0)
(0.999902 -3.12769e-05 0)
(0.999883 5.1614e-05 0)
(0.999815 0.000111811 0)
(0.999787 0.000148938 0)
(0.999743 0.0001792 0)
(0.999712 0.000205471 0)
(0.999617 0.000249013 0)
(0.999601 0.000283833 0)
(0.999511 0.000341029 0)
(0.999453 0.000409884 0)
(0.999379 0.000474955 0)
(0.999327 0.000559834 0)
(0.999255 0.000636156 0)
(0.999186 0.000724637 0)
(0.999114 0.000808975 0)
(0.999063 0.000899842 0)
(0.999003 0.000992142 0)
(0.998947 0.00108706 0)
(0.99888 0.00118782 0)
(0.998839 0.00128253 0)
(0.998786 0.00138412 0)
(0.998748 0.00147946 0)
(0.998685 0.00157992 0)
(0.998634 0.00167105 0)
(0.99856 0.00176246 0)
(0.9985 0.00184432 0)
(0.998428 0.00192641 0)
(0.998377 0.00200383 0)
(0.998325 0.00208244 0)
(0.998294 0.00215747 0)
(0.998261 0.00223143 0)
(0.998239 0.0023011 0)
(0.998206 0.00236787 0)
(0.99817 0.00243022 0)
(0.998109 0.00248887 0)
(0.998024 0.00254342 0)
(0.997882 0.00259416 0)
(0.997652 0.00264137 0)
(0.997236 0.00268503 0)
(1.00002 -3.60911e-05 0)
(0.999919 -1.90611e-05 0)
(0.99991 4.52813e-05 0)
(0.999838 0.000111544 0)
(0.999805 0.000162274 0)
(0.999761 0.000200937 0)
(0.999733 0.000230105 0)
(0.999639 0.000280079 0)
(0.999629 0.000318098 0)
(0.999546 0.000377336 0)
(0.999493 0.000447584 0)
(0.999425 0.000511436 0)
(0.999379 0.000595996 0)
(0.999314 0.000674632 0)
(0.999251 0.00076527 0)
(0.999186 0.000853798 0)
(0.999142 0.000946994 0)
(0.99909 0.00104136 0)
(0.999043 0.00113755 0)
(0.998982 0.00123796 0)
(0.998946 0.00133216 0)
(0.998898 0.00142919 0)
(0.998865 0.00151936 0)
(0.998808 0.00161099 0)
(0.998763 0.00169359 0)
(0.998697 0.00177513 0)
(0.998644 0.00185064 0)
(0.998578 0.00192801 0)
(0.998534 0.00200304 0)
(0.99849 0.0020793 0)
(0.998466 0.00215218 0)
(0.998438 0.0022233 0)
(0.99842 0.00228968 0)
(0.99839 0.00235273 0)
(0.998356 0.00241104 0)
(0.998296 0.00246579 0)
(0.998212 0.00251638 0)
(0.998071 0.00256362 0)
(0.997841 0.00260731 0)
(0.997426 0.00264796 0)
(1.00002 -2.13046e-05 0)
(0.999934 -4.44107e-06 0)
(0.999931 5.30619e-05 0)
(0.999863 0.000107117 0)
(0.999825 0.000169995 0)
(0.999779 0.000218774 0)
(0.999754 0.000254549 0)
(0.999662 0.00031112 0)
(0.999657 0.000351725 0)
(0.999582 0.00041211 0)
(0.999533 0.000484045 0)
(0.999471 0.000549384 0)
(0.999434 0.000635022 0)
(0.999375 0.000716781 0)
(0.999319 0.000809561 0)
(0.999261 0.000898772 0)
(0.999223 0.000993869 0)
(0.99918 0.00108674 0)
(0.999141 0.00118273 0)
(0.999088 0.00128051 0)
(0.999058 0.00137379 0)
(0.999017 0.00146713 0)
(0.998989 0.00155424 0)
(0.998934 0.00164058 0)
(0.998887 0.00171752 0)
(0.998821 0.00179125 0)
(0.998773 0.00185946 0)
(0.998721 0.00193078 0)
(0.998691 0.00200143 0)
(0.998658 0.00207422 0)
(0.998642 0.00214363 0)
(0.998618 0.00221119 0)
(0.998602 0.00227342 0)
(0.998573 0.00233239 0)
(0.998539 0.00238625 0)
(0.998481 0.00243697 0)
(0.998397 0.00248336 0)
(0.998256 0.00252698 0)
(0.998026 0.00256694 0)
(0.997611 0.00260443 0)
(1.00002 -8.52864e-06 0)
(0.999944 8.73195e-06 0)
(0.999949 6.19091e-05 0)
(0.999883 0.000108589 0)
(0.999846 0.000173685 0)
(0.999799 0.000233895 0)
(0.999777 0.000277549 0)
(0.999686 0.000341672 0)
(0.999683 0.000386538 0)
(0.999617 0.000447673 0)
(0.999573 0.000521743 0)
(0.999518 0.000588385 0)
(0.99949 0.000672811 0)
(0.999439 0.000755966 0)
(0.99939 0.000850333 0)
(0.999339 0.000938515 0)
(0.999309 0.00103513 0)
(0.999272 0.00112644 0)
(0.999242 0.00122153 0)
(0.999195 0.00131599 0)
(0.99917 0.00140618 0)
(0.999131 0.00149339 0)
(0.999106 0.00157304 0)
(0.999053 0.00165107 0)
(0.999007 0.00172142 0)
(0.998946 0.00179235 0)
(0.998908 0.00185948 0)
(0.998868 0.00192998 0)
(0.99885 0.00199783 0)
(0.998826 0.00206718 0)
(0.998816 0.00213168 0)
(0.998795 0.00219476 0)
(0.998781 0.00225176 0)
(0.998752 0.00230637 0)
(0.998718 0.00235537 0)
(0.998659 0.00240218 0)
(0.998576 0.00244428 0)
(0.998435 0.00248454 0)
(0.998206 0.00252081 0)
(0.997791 0.00255543 0)
(1.00002 -3.40006e-07 0)
(0.999953 2.49842e-05 0)
(0.999962 7.13156e-05 0)
(0.999901 0.000116325 0)
(0.999868 0.00017988 0)
(0.99982 0.000243016 0)
(0.999801 0.000295111 0)
(0.999711 0.000369283 0)
(0.999711 0.000421148 0)
(0.999653 0.000485008 0)
(0.999615 0.000562134 0)
(0.999565 0.000630321 0)
(0.999547 0.000712706 0)
(0.999505 0.000792475 0)
(0.999462 0.000888334 0)
(0.999419 0.00097397 0)
(0.999396 0.00106957 0)
(0.999366 0.00115938 0)
(0.999344 0.00125175 0)
(0.999303 0.00134305 0)
(0.99928 0.00142838 0)
(0.999243 0.00151029 0)
(0.999219 0.00158272 0)
(0.999169 0.0016546 0)
(0.999128 0.0017202 0)
(0.999075 0.00178926 0)
(0.999048 0.0018546 0)
(0.999019 0.00192325 0)
(0.99901 0.00198748 0)
(0.998993 0.00205261 0)
(0.998987 0.00211188 0)
(0.998968 0.00216998 0)
(0.998954 0.00222183 0)
(0.998925 0.00227188 0)
(0.998892 0.00231642 0)
(0.998833 0.00235934 0)
(0.99875 0.0023977 0)
(0.99861 0.00243466 0)
(0.998381 0.00246776 0)
(0.997966 0.00249952 0)
(1.00002 7.25373e-06 0)
(0.999958 3.74386e-05 0)
(0.999973 8.42059e-05 0)
(0.999916 0.000127797 0)
(0.999886 0.000189683 0)
(0.999842 0.000252689 0)
(0.999829 0.000305052 0)
(0.99974 0.000387456 0)
(0.999739 0.000449267 0)
(0.99969 0.000516994 0)
(0.999657 0.000601186 0)
(0.999612 0.000673855 0)
(0.999601 0.000754885 0)
(0.999571 0.000828772 0)
(0.999537 0.000923115 0)
(0.9995 0.00100666 0)
(0.999486 0.0010979 0)
(0.999462 0.00118574 0)
(0.999448 0.00127405 0)
(0.99941 0.00136232 0)
(0.999389 0.00144249 0)
(0.99935 0.00151955 0)
(0.999326 0.00158601 0)
(0.99928 0.00165407 0)
(0.999248 0.00171719 0)
(0.999206 0.00178489 0)
(0.999189 0.00184799 0)
(0.999169 0.00191345 0)
(0.999167 0.00197312 0)
(0.999155 0.00203324 0)
(0.999151 0.00208717 0)
(0.999134 0.00214032 0)
(0.999121 0.00218743 0)
(0.999091 0.00223328 0)
(0.999058 0.00227384 0)
(0.999 0.00231321 0)
(0.998918 0.00234816 0)
(0.998778 0.00238206 0)
(0.998549 0.0024122 0)
(0.998134 0.00244134 0)
(1.00002 1.25096e-05 0)
(0.999963 4.89607e-05 0)
(0.99998 9.80353e-05 0)
(0.999929 0.000141552 0)
(0.999904 0.000204865 0)
(0.999859 0.000268841 0)
(0.999855 0.000319491 0)
(0.999773 0.000403706 0)
(0.999772 0.000473273 0)
(0.999733 0.00054182 0)
(0.999706 0.000630535 0)
(0.999663 0.000706202 0)
(0.999654 0.000790218 0)
(0.999634 0.000859873 0)
(0.999611 0.000950009 0)
(0.99958 0.00103214 0)
(0.999574 0.00111639 0)
(0.999557 0.0011989 0)
(0.999551 0.00127915 0)
(0.999517 0.00136164 0)
(0.999495 0.0014362 0)
(0.999456 0.00151004 0)
(0.999434 0.00157455 0)
(0.999396 0.00164135 0)
(0.999374 0.00170327 0)
(0.999342 0.00176845 0)
(0.999332 0.00182838 0)
(0.999317 0.00188899 0)
(0.999319 0.00194369 0)
(0.999311 0.00199797 0)
(0.99931 0.00204682 0)
(0.999295 0.00209472 0)
(0.999282 0.00213758 0)
(0.999253 0.00217911 0)
(0.99922 0.00221615 0)
(0.999162 0.00225185 0)
(0.99908 0.00228373 0)
(0.998941 0.00231439 0)
(0.998713 0.00234181 0)
(0.998298 0.00236811 0)
(1.00002 1.73863e-05 0)
(0.999966 5.91111e-05 0)
(0.999987 0.000111699 0)
(0.99994 0.000158335 0)
(0.999922 0.000220709 0)
(0.999878 0.000289471 0)
(0.999882 0.000341767 0)
(0.999806 0.000424235 0)
(0.999804 0.000498079 0)
(0.999773 0.00056388 0)
(0.999754 0.000649686 0)
(0.999716 0.000725628 0)
(0.99971 0.000811989 0)
(0.999697 0.00088284 0)
(0.999687 0.000968529 0)
(0.999658 0.00105254 0)
(0.999658 0.00113395 0)
(0.999645 0.00121389 0)
(0.999647 0.00128922 0)
(0.999619 0.00136766 0)
(0.999602 0.00143927 0)
(0.999565 0.00151073 0)
(0.999547 0.00157386 0)
(0.999515 0.00163821 0)
(0.9995 0.00169778 0)
(0.999475 0.00175944 0)
(0.999469 0.00181599 0)
(0.999459 0.00187236 0)
(0.999463 0.00192286 0)
(0.999458 0.00197252 0)
(0.999459 0.002017 0)
(0.999446 0.00206066 0)
(0.999434 0.00209972 0)
(0.999406 0.0021378 0)
(0.999373 0.00217168 0)
(0.999316 0.00220454 0)
(0.999234 0.00223371 0)
(0.999094 0.00226194 0)
(0.998866 0.00228698 0)
(0.998451 0.00231115 0)
(1.00002 2.05714e-05 0)
(0.99997 6.76751e-05 0)
(0.999992 0.000124149 0)
(0.999951 0.000173684 0)
(0.99994 0.000237037 0)
(0.999896 0.000308138 0)
(0.999906 0.000361886 0)
(0.999841 0.000440459 0)
(0.999837 0.000519123 0)
(0.999813 0.00058302 0)
(0.999804 0.000667022 0)
(0.999772 0.000741124 0)
(0.999769 0.000824953 0)
(0.999762 0.000895088 0)
(0.999765 0.000971167 0)
(0.999744 0.00105015 0)
(0.999748 0.00112489 0)
(0.99974 0.00119854 0)
(0.999748 0.00126626 0)
(0.999726 0.00133684 0)
(0.99971 0.00140264 0)
(0.999675 0.00146832 0)
(0.999659 0.0015275 0)
(0.999633 0.00158684 0)
(0.999626 0.00164259 0)
(0.999609 0.00169958 0)
(0.999608 0.00175272 0)
(0.9996 0.001805 0)
(0.999606 0.00185213 0)
(0.999602 0.00189761 0)
(0.999605 0.00193841 0)
(0.999594 0.00197798 0)
(0.999583 0.00201361 0)
(0.999557 0.00204818 0)
(0.999525 0.00207921 0)
(0.999468 0.00210921 0)
(0.999386 0.00213605 0)
(0.999247 0.00216197 0)
(0.999018 0.00218514 0)
(0.998603 0.00220749 0)
(1.00002 2.4541e-05 0)
(0.999973 7.57764e-05 0)
(0.999999 0.000136261 0)
(0.999961 0.000189414 0)
(0.999958 0.000251617 0)
(0.999916 0.00032389 0)
(0.999931 0.000380496 0)
(0.999876 0.000455255 0)
(0.999872 0.000537216 0)
(0.999853 0.00060285 0)
(0.999852 0.000684616 0)
(0.999825 0.000760211 0)
(0.999826 0.000843261 0)
(0.999819 0.000918254 0)
(0.999831 0.000992695 0)
(0.999815 0.00107172 0)
(0.999823 0.00114726 0)
(0.999816 0.00122142 0)
(0.999829 0.00128777 0)
(0.999815 0.00135373 0)
(0.999807 0.00141466 0)
(0.999777 0.00147561 0)
(0.999765 0.00153193 0)
(0.999746 0.00158815 0)
(0.999746 0.0016406 0)
(0.999737 0.00169342 0)
(0.999741 0.00174227 0)
(0.999736 0.00179034 0)
(0.999742 0.00183348 0)
(0.999739 0.00187524 0)
(0.999742 0.00191231 0)
(0.999731 0.00194829 0)
(0.999723 0.00198017 0)
(0.999697 0.00201115 0)
(0.999666 0.00203844 0)
(0.99961 0.00206487 0)
(0.99953 0.00208802 0)
(0.999391 0.00211042 0)
(0.999164 0.00213002 0)
(0.99875 0.00214901 0)
(1.00002 2.42985e-05 0)
(0.999976 8.33864e-05 0)
(1 0.000147325 0)
(0.999969 0.000206146 0)
(0.999973 0.000267283 0)
(0.999933 0.000339658 0)
(0.999953 0.000396618 0)
(0.99991 0.000465748 0)
(0.999909 0.000546188 0)
(0.999894 0.000610978 0)
(0.999903 0.000684933 0)
(0.999885 0.000755009 0)
(0.999894 0.00082708 0)
(0.999892 0.000894668 0)
(0.999915 0.000955816 0)
(0.99991 0.00101977 0)
(0.999924 0.00108009 0)
(0.999918 0.00114088 0)
(0.99993 0.00119641 0)
(0.999916 0.00125355 0)
(0.999909 0.00131037 0)
(0.999882 0.00137136 0)
(0.999875 0.00143165 0)
(0.999861 0.00149155 0)
(0.999866 0.00154563 0)
(0.999861 0.0015962 0)
(0.999869 0.00164082 0)
(0.999866 0.00168339 0)
(0.999873 0.00172192 0)
(0.99987 0.00175991 0)
(0.999873 0.00179509 0)
(0.999863 0.00183027 0)
(0.999853 0.00186303 0)
(0.999826 0.00189562 0)
(0.999793 0.00192571 0)